units metal
dimension 3
boundary p p p
atom_style atomic
variable latparam equal 2.855312

# ---------- Create Atoms ---------------------
lattice 	bcc ${latparam}
lattice 	bcc 2.855312
Lattice spacing in x,y,z = 2.85531 2.85531 2.85531
region	whole block 0 10 0 10 0 10 units lattice
create_box   1 whole
Created orthogonal box = (0 0 0) to (28.5531 28.5531 28.5531)
  1 by 2 by 2 MPI processor grid
create_atoms 1 region whole
Created 2000 atoms

# ---------- Define Interatomic Potential ---------------------
pair_style eam/fs
pair_coeff * * Fe_2.eam.fs Fe

compute csym all centro/atom bcc
compute eng all pe/atom
compute eatoms all reduce sum c_eng

 # ----------- EQUILIBRATION --------------------
write_dump all custom dump.img_pre_equil.cfg mass type xs ys zs
WARNING: Calling write_dump before a full system init. (../write_dump.cpp:81)
reset_timestep	0
timestep 0.001
velocity all create 300 12345 mom yes rot no
fix 2 all npt temp 300 300 0.01 iso 0 0 1 drag 1

thermo 1000
thermo_style custom step temp pe lx ly lz press pxx pyy pzz c_eatoms
dump 5 all cfg 1000 dump.equal_*.cfg mass type xs ys zs c_csym c_eng fx fy fz
dump_modify     5 element Fe

# Run for at least 10 picosecond (assuming 1 fs timestep)
write_dump all custom dump.img_post_equil.cfg mass type xs ys zs
WARNING: Calling write_dump before a full system init. (../write_dump.cpp:81)

run 20000
Neighbor list info ...
  2 neighbor list requests
  update every 1 steps, delay 10 steps, check yes
  master list distance cutoff = 7.3
  ghost atom cutoff = 7.3
Memory usage per processor = 4.27045 Mbytes
Step Temp PotEng Lx Ly Lz Press Pxx Pyy Pzz eatoms 
       0          300   -8244.8702     28.55312     28.55312     28.55312    3580.3532    3528.8837    3568.2403    3643.9356   -8244.8702 
    1000    289.16837   -8163.1708    28.584259    28.584259    28.584259    74.474262    168.07432    117.55469   -62.206227   -8163.1708 
    2000    304.56349   -8161.3119    28.584118    28.584118    28.584118    584.54427    423.55295    343.99447    986.08538   -8161.3119 
    3000    295.76148   -8160.4868    28.586865    28.586865    28.586865    361.40643    328.09489    433.51893    322.60546   -8160.4868 
    4000    305.73041   -8163.8204    28.592374    28.592374    28.592374   -826.28107   -1025.2583   -337.21789    -1116.367   -8163.8204 
    5000    303.84167   -8166.0571    28.586719    28.586719    28.586719    597.28523    465.81609    721.05058    604.98902   -8166.0571 
    6000    299.08814    -8161.718    28.580079    28.580079    28.580079    1312.1654    1673.4417    1077.8357    1185.2189    -8161.718 
    7000    309.04248   -8162.3778    28.587967    28.587967    28.587967    671.28867    585.90651    602.81059     825.1489   -8162.3778 
    8000     299.1143   -8162.1078    28.587752    28.587752    28.587752    441.32473    381.67497    534.11054    408.18869   -8162.1078 
    9000    300.26531   -8162.4966     28.59124     28.59124     28.59124   -404.87263   -227.56556    -390.2101   -596.84223   -8162.4966 
   10000    301.51781   -8163.6755    28.596521    28.596521    28.596521   -722.46137   -834.28295   -454.43371   -878.66744   -8163.6755 
   11000    299.16278   -8162.5734    28.590135    28.590135    28.590135   -3.0865284   -152.18753    200.81081    -57.88286   -8162.5734 
   12000    304.92578   -8163.7872    28.588075    28.588075    28.588075    516.75317    395.47749    590.77983    564.00218   -8163.7872 
   13000     299.2556   -8162.2434    28.592835    28.592835    28.592835   -554.63082    -602.9226   -835.67127   -225.29859   -8162.2434 
   14000    299.49708   -8161.5501    28.592373    28.592373    28.592373   -292.25808   -603.00116   -496.15804    222.38497   -8161.5501 
   15000    305.03241   -8164.3525    28.593847    28.593847    28.593847    -586.9314   -794.11391   -397.55189   -569.12841   -8164.3525 
   16000    298.68202     -8160.69      28.5895      28.5895      28.5895    280.79857    689.16052    116.08176    37.153438     -8160.69 
   17000    298.04062   -8163.0202     28.59064     28.59064     28.59064   -295.02091   -243.76955   -557.92228   -83.370913   -8163.0202 
   18000    301.93509   -8164.0384    28.592155    28.592155    28.592155   -315.90196    38.948048   -530.62197   -456.03195   -8164.0384 
   19000    299.07003   -8161.3931    28.590051    28.590051    28.590051    266.35305    228.99904    570.24054  -0.18042329   -8161.3931 
   20000    300.82794   -8162.8573    28.586629    28.586629    28.586629    895.56506    507.76911    1199.3845    979.54157   -8162.8573 
Loop time of 6854.66 on 4 procs for 20000 steps with 2000 atoms

Pair  time (%) = 2049.61 (29.901)
Neigh time (%) = 0 (0)
Comm  time (%) = 2997.45 (43.7286)
Outpt time (%) = 8.56054 (0.124887)
Other time (%) = 1799.04 (26.2455)

Nlocal:    500 ave 500 max 500 min
Histogram: 4 0 0 0 0 0 0 0 0 0
Nghost:    2936 ave 2936 max 2936 min
Histogram: 4 0 0 0 0 0 0 0 0 0
Neighs:    34000 ave 35082 max 32891 min
Histogram: 1 0 1 0 0 0 0 1 0 1
FullNghs:  68000 ave 68000 max 68000 min
Histogram: 4 0 0 0 0 0 0 0 0 0

Total # of neighbors = 272000
Ave neighs/atom = 136
Neighbor list builds = 0
Dangerous builds = 0
unfix 2
write_dump all custom dump.img_post_equil.cfg mass type xs ys zs
print "test1"
test1

# ---------- Run 0 ---------------------
compute engperatom all pe/atom

# ---------- Run 0 ---------------------
thermo 1
thermo_style custom step temp pe etotal
dump 1 all custom 1 dump.atom.* id x y z c_engperatom
run 0
WARNING: No fixes defined, atoms won't move (../verlet.cpp:55)
Memory usage per processor = 5.6649 Mbytes
Step Temp PotEng TotEng 
   20000    300.82794   -8162.8573   -8085.1261 
Loop time of 0.018975 on 4 procs for 0 steps with 2000 atoms

Pair  time (%) = 0 (0)
Neigh time (%) = 0 (0)
Comm  time (%) = 0 (0)
Outpt time (%) = 0 (0)
Other time (%) = 0.018975 (100)

Nlocal:    500 ave 510 max 490 min
Histogram: 1 0 0 0 1 1 0 0 0 1
Nghost:    2926 ave 2935 max 2911 min
Histogram: 1 0 0 0 0 0 0 2 0 1
Neighs:    34684.5 ave 35960 max 33330 min
Histogram: 1 0 1 0 0 0 0 1 0 1
FullNghs:  68000 ave 68000 max 68000 min
Histogram: 4 0 0 0 0 0 0 0 0 0

Total # of neighbors = 272000
Ave neighs/atom = 136
Neighbor list builds = 0
Dangerous builds = 0

variable natoms equal "count(all)"
variable teng equal "pe"
variable ecoh equal "v_teng/v_natoms"

print "Total energy (eV) = ${teng};"
Total energy (eV) = -8162.85730440729;
print "Number of atoms = ${natoms};"
Number of atoms = 2000;
print "Cohesive energy (eV) = ${ecoh};"
Cohesive energy (eV) = -4.08142865220364;
print "%% ecoh = ${ecoh};"
%% ecoh = -4.08142865220364;

print "BAZINGAA"
BAZINGAA
