LAMMPS (10 Aug 2015)
# LAMMPS Input File for Grain Boundaries
# Mark Tschopp, Dec2009
# This file will generate a single Sigma5(310) STGB

 # ---------- Initialize Simulation ---------------------
clear
units metal
dimension 3
boundary p p p
atom_style atomic

 # ---------- Create Atomistic Structure ---------------------
lattice fcc 3.615
Lattice spacing in x,y,z = 3.615 3.615 3.615
region whole block 0.000000 12.807225 -64.0361225 64.0361225 0.000000 3.715000 units box
create_box 2 whole
Created orthogonal box = (0 -64.0361 0) to (12.8072 64.0361 3.715)
  1 by 1 by 1 MPI processor grid
region upper block INF INF 0.000000 64.0361225 INF INF units box

lattice fcc 3.615 orient x 0 3 1 orient y  0 -1 3 orient z 1 0 0
Lattice spacing in x,y,z = 4.57265 4.57265 3.615

 create_atoms 1 region upper
Created 393 atoms
region lower block INF INF -64.0361225 0.000000 INF INF units box
lattice fcc 3.615 orient x 0 3 -1 orient y  0 1 3 orient z 1 0 0
Lattice spacing in x,y,z = 4.57265 4.57265 3.615

 create_atoms 2 region lower
Created 393 atoms
group upper type 1
393 atoms in group upper
group lower type 2
393 atoms in group lower
#replicate 1 1 1

 # ---------- Define Interatomic Potential ---------------------
pair_style eam/alloy
pair_coeff * * Cu01.eam.alloy Cu Cu
neighbor 2.0 bin
neigh_modify delay 10 check yes

 # ---------- Displace atoms and delete overlapping atoms ---------------------
displace_atoms upper move 0 0 0 units lattice
delete_atoms overlap 0.35 lower upper
Neighbor list info ...
  2 neighbor list requests
  update every 1 steps, delay 10 steps, check yes
  master list distance cutoff = 7.50679
  ghost atom cutoff = 7.50679
Deleted 6 atoms, new total = 780

 # ---------- Define Settings ---------------------
compute csym all centro/atom fcc
compute eng all pe/atom
compute eatoms all reduce sum c_eng

#write_dump all custom dump.img_orig.cfg mass type xs ys zs

 # ---------- Run Minimization ---------------------
write_dump all custom dump.img_post_equil_10.cfg mass type xs ys zs
WARNING: Calling write_dump before a full system init. (../write_dump.cpp:81)
reset_timestep 0
thermo 10
thermo_style custom step pe lx ly lz press pxx pyy pzz c_eatoms
dump 		1 all cfg 25 dump.sig5_minimization_*.cfg mass type xs ys zs c_csym c_eng fx fy fz
dump_modify     1 element Cu Cu
min_style cg
minimize 1e-15 1e-15 5000 5000
WARNING: Resetting reneighboring criteria during minimization (../min.cpp:168)
Neighbor list info ...
  2 neighbor list requests
  update every 1 steps, delay 0 steps, check yes
  master list distance cutoff = 7.50679
  ghost atom cutoff = 7.50679
Memory usage per processor = 5.58762 Mbytes
Step PotEng Lx Ly Lz Press Pxx Pyy Pzz eatoms 
       0    3142172.2    12.807225    128.07225        3.715 1.233822e+08    6015046.8    713760.01 3.6341779e+08    3142172.2 
      10    259.03235    12.807225    128.07225        3.715    2785370.6    2511604.9    1975598.3    3868908.7    259.03235 
      20    174.67554    12.807225    128.07225        3.715    2741253.5    2385989.2    1997380.3      3840391    174.67554 
      30    156.86273    12.807225    128.07225        3.715    2741493.9    2333000.3    2095913.4      3795568    156.86273 
      40    153.02483    12.807225    128.07225        3.715    2741685.8    2300946.6    2134289.7    3789821.1    153.02483 
      50    151.20845    12.807225    128.07225        3.715    2742752.6    2292348.4    2155056.1    3780853.3    151.20845 
      60    144.46225    12.807225    128.07225        3.715    2742516.9    2286191.6    2176059.1    3765300.2    144.46225 
      70     126.7871    12.807225    128.07225        3.715      2734530    2268747.2    2189316.2    3745526.6     126.7871 
      80   -265.80066    12.807225    128.07225        3.715    2482658.9      2131864    2131269.9    3184842.7   -265.80066 
      90   -969.63168    12.807225    128.07225        3.715    2034505.8    1905720.8    2113129.1    2084667.4   -969.63168 
     100   -1287.5231    12.807225    128.07225        3.715    1843002.6    1802904.8    2024293.2    1701809.8   -1287.5231 
     110   -1401.0861    12.807225    128.07225        3.715    1780212.5    1761346.2      1919249    1660042.4   -1401.0861 
     120   -1482.7229    12.807225    128.07225        3.715    1735823.6    1718906.2    1811019.4    1677545.1   -1482.7229 
     130   -1522.4094    12.807225    128.07225        3.715    1713167.8      1696969    1765293.3      1677241   -1522.4094 
     140   -1552.8379    12.807225    128.07225        3.715    1695348.1    1693923.4    1723560.2    1668560.6   -1552.8379 
     150    -1578.686    12.807225    128.07225        3.715    1680239.1    1677784.5    1694118.6    1668814.2    -1578.686 
     160   -1592.9946    12.807225    128.07225        3.715    1672021.1    1670690.7    1672792.4    1672580.1   -1592.9946 
     170    -1602.161    12.807225    128.07225        3.715    1667030.6    1656940.7    1650359.1    1693791.9    -1602.161 
     180   -1615.0533    12.807225    128.07225        3.715    1658639.5    1659679.9    1639918.8    1676319.7   -1615.0533 
     190   -1621.7033    12.807225    128.07225        3.715    1654838.8      1654095    1626855.5    1683565.8   -1621.7033 
     200   -1626.6609    12.807225    128.07225        3.715    1652150.4    1642145.2    1612580.5    1701725.5   -1626.6609 
     210   -1636.3068    12.807225    128.07225        3.715    1646807.7    1634496.1    1604931.5    1700995.5   -1636.3068 
     220    -1642.002    12.807225    128.07225        3.715    1643561.4    1628768.5    1604827.2    1697088.5    -1642.002 
     230   -1646.9581    12.807225    128.07225        3.715      1640659      1621124    1590742.9    1710110.1   -1646.9581 
     240   -1651.3191    12.807225    128.07225        3.715    1638035.8    1614174.4    1587803.8    1712129.3   -1651.3191 
     250   -1654.1455    12.807225    128.07225        3.715    1636520.6    1611789.8    1582353.8    1715418.3   -1654.1455 
     260    -1655.406    12.807225    128.07225        3.715      1636082    1605627.4    1585360.9    1717257.7    -1655.406 
     270   -1657.4314    12.807225    128.07225        3.715    1635161.3      1601395      1586191    1717897.9   -1657.4314 
     280   -1658.3269    12.807225    128.07225        3.715      1634653    1600722.5    1587452.9    1715783.5   -1658.3269 
     290   -1659.1815    12.807225    128.07225        3.715    1634184.8    1605185.4    1579539.3    1717829.8   -1659.1815 
     300   -1660.4882    12.807225    128.07225        3.715    1633684.6    1605860.5    1580903.2    1714290.1   -1660.4882 
     310   -1662.2522    12.807225    128.07225        3.715    1633025.9    1598846.3    1580263.6    1719967.7   -1662.2522 
     320    -1662.818    12.807225    128.07225        3.715    1632853.2    1595811.6    1579073.6    1723674.4    -1662.818 
     330   -1663.0205    12.807225    128.07225        3.715    1632663.7    1596874.8    1576662.3      1724454   -1663.0205 
     340   -1663.6632    12.807225    128.07225        3.715      1632075    1599559.4    1576855.3    1719810.4   -1663.6632 
     350   -1664.3738    12.807225    128.07225        3.715    1631783.9    1597654.3    1576388.1    1721309.3   -1664.3738 
     360   -1664.6437    12.807225    128.07225        3.715    1631546.1    1597149.4    1576067.9      1721421   -1664.6437 
     370   -1665.0238    12.807225    128.07225        3.715    1631219.2    1597606.5    1576898.3    1719152.7   -1665.0238 
     380   -1665.1825    12.807225    128.07225        3.715    1631068.1      1597299    1577536.6    1718368.7   -1665.1825 
     390   -1665.3229    12.807225    128.07225        3.715    1631035.1    1597263.9    1576366.8    1719474.5   -1665.3229 
     400   -1665.5445    12.807225    128.07225        3.715    1631131.3    1597707.3    1575119.5      1720567   -1665.5445 
     410   -1665.6572    12.807225    128.07225        3.715    1631118.6    1596824.6    1573240.5    1723290.9   -1665.6572 
     420   -1665.7418    12.807225    128.07225        3.715    1631001.8    1597097.2    1573762.5    1722145.7   -1665.7418 
     430   -1665.7938    12.807225    128.07225        3.715    1630959.4    1597109.4    1575300.7    1720468.1   -1665.7938 
     440   -1665.9781    12.807225    128.07225        3.715    1630778.7    1597306.2      1574640    1720389.8   -1665.9781 
     450   -1666.2351    12.807225    128.07225        3.715    1630552.5    1597982.1    1573795.4    1719879.9   -1666.2351 
     460   -1666.3536    12.807225    128.07225        3.715    1630525.4    1598434.4    1574125.8    1719016.2   -1666.3536 
     470   -1666.4157    12.807225    128.07225        3.715    1630474.9    1599805.8    1574501.1    1717117.9   -1666.4157 
     480   -1666.5489    12.807225    128.07225        3.715    1630486.8    1600969.5    1574102.1      1716389   -1666.5489 
     490   -1666.6301    12.807225    128.07225        3.715    1630486.7    1600352.2    1573762.4    1717345.7   -1666.6301 
     500   -1666.6835    12.807225    128.07225        3.715    1630385.9    1599752.2    1573146.3    1718259.3   -1666.6835 
     510   -1666.7175    12.807225    128.07225        3.715    1630356.3    1599781.8    1573810.2    1717476.8   -1666.7175 
     520    -1666.734    12.807225    128.07225        3.715    1630320.6      1599922    1574418.1    1716621.8    -1666.734 
     530    -1666.743    12.807225    128.07225        3.715    1630341.3    1600061.7    1574463.9    1716498.3    -1666.743 
     540   -1666.7499    12.807225    128.07225        3.715    1630353.6    1600105.7    1573826.4    1717128.8   -1666.7499 
     550   -1666.7563    12.807225    128.07225        3.715    1630343.7    1600081.2    1573479.1    1717470.6   -1666.7563 
     560   -1666.7615    12.807225    128.07225        3.715    1630355.8    1600144.7    1573748.4    1717174.3   -1666.7615 
     570   -1666.7654    12.807225    128.07225        3.715    1630374.1    1600212.1    1573832.5    1717077.9   -1666.7654 
     580   -1666.7681    12.807225    128.07225        3.715    1630364.3    1600216.6    1574003.1    1716873.2   -1666.7681 
     590   -1666.7693    12.807225    128.07225        3.715      1630361    1600126.2    1574058.4    1716898.5   -1666.7693 
     600   -1666.7699    12.807225    128.07225        3.715    1630376.1    1600038.1    1573853.9    1717236.4   -1666.7699 
     610   -1666.7702    12.807225    128.07225        3.715    1630378.5    1600033.5    1573845.2    1717256.8   -1666.7702 
     620   -1666.7703    12.807225    128.07225        3.715    1630375.6    1600070.3    1573879.7    1717176.7   -1666.7703 
     630   -1666.7705    12.807225    128.07225        3.715    1630374.2    1600080.6    1573885.1      1717157   -1666.7705 
     640   -1666.7705    12.807225    128.07225        3.715    1630377.3    1600061.2      1573904    1717166.6   -1666.7705 
     650   -1666.7706    12.807225    128.07225        3.715    1630377.5    1600038.6    1573876.8    1717217.2   -1666.7706 
     660   -1666.7706    12.807225    128.07225        3.715      1630377    1600029.7      1573851    1717250.3   -1666.7706 
     670   -1666.7707    12.807225    128.07225        3.715    1630378.7    1599997.8    1573863.8    1717274.5   -1666.7707 
     680   -1666.7707    12.807225    128.07225        3.715    1630377.8    1599972.4    1573871.3    1717289.8   -1666.7707 
     690   -1666.7707    12.807225    128.07225        3.715    1630378.8    1599975.7    1573846.6      1717314   -1666.7707 
     700   -1666.7707    12.807225    128.07225        3.715    1630378.7    1599980.4    1573838.2    1717317.4   -1666.7707 
     710   -1666.7708    12.807225    128.07225        3.715    1630378.9    1599970.8    1573827.4    1717338.6   -1666.7708 
     720   -1666.7708    12.807225    128.07225        3.715    1630379.4    1599966.4    1573828.8    1717342.9   -1666.7708 
     730   -1666.7708    12.807225    128.07225        3.715    1630379.3    1599967.6    1573833.3    1717336.9   -1666.7708 
     740   -1666.7708    12.807225    128.07225        3.715      1630379    1599968.1    1573838.2    1717330.7   -1666.7708 
     750   -1666.7708    12.807225    128.07225        3.715    1630379.3    1599966.3    1573839.3    1717332.2   -1666.7708 
     760   -1666.7708    12.807225    128.07225        3.715    1630379.2    1599966.4    1573837.7    1717333.4   -1666.7708 
     770   -1666.7708    12.807225    128.07225        3.715    1630379.2      1599967    1573836.7      1717334   -1666.7708 
     780   -1666.7708    12.807225    128.07225        3.715    1630379.2    1599967.3    1573836.9    1717333.5   -1666.7708 
     790   -1666.7708    12.807225    128.07225        3.715    1630379.2    1599967.8    1573837.3    1717332.5   -1666.7708 
     800   -1666.7708    12.807225    128.07225        3.715    1630379.2      1599968    1573838.3    1717331.3   -1666.7708 
     810   -1666.7708    12.807225    128.07225        3.715    1630379.2    1599968.1    1573838.3    1717331.2   -1666.7708 
     820   -1666.7708    12.807225    128.07225        3.715    1630379.1    1599968.2    1573838.4    1717330.8   -1666.7708 
     830   -1666.7708    12.807225    128.07225        3.715    1630379.2    1599968.3    1573838.3    1717330.9   -1666.7708 
     840   -1666.7708    12.807225    128.07225        3.715    1630379.2    1599968.2    1573838.2    1717331.1   -1666.7708 
     850   -1666.7708    12.807225    128.07225        3.715    1630379.2    1599968.3    1573838.2      1717331   -1666.7708 
     860   -1666.7708    12.807225    128.07225        3.715    1630379.1    1599968.4    1573838.3    1717330.7   -1666.7708 
     870   -1666.7708    12.807225    128.07225        3.715    1630379.1    1599968.5    1573838.3    1717330.7   -1666.7708 
     880   -1666.7708    12.807225    128.07225        3.715    1630379.2    1599968.4    1573838.3    1717330.7   -1666.7708 
     890   -1666.7708    12.807225    128.07225        3.715    1630379.2    1599968.5    1573838.4    1717330.6   -1666.7708 
     900   -1666.7708    12.807225    128.07225        3.715    1630379.1    1599968.6    1573838.4    1717330.5   -1666.7708 
     910   -1666.7708    12.807225    128.07225        3.715    1630379.1    1599968.6    1573838.4    1717330.4   -1666.7708 
     920   -1666.7708    12.807225    128.07225        3.715    1630379.1    1599968.6    1573838.5    1717330.3   -1666.7708 
     927   -1666.7708    12.807225    128.07225        3.715    1630379.1    1599968.6    1573838.4    1717330.4   -1666.7708 
Loop time of 7.40736 on 1 procs for 927 steps with 780 atoms

Minimization stats:
  Stopping criterion = energy tolerance
  Energy initial, next-to-last, final = 
         3142172.22622     -1666.77075699     -1666.77075699
  Force two-norm initial, final = 1.19559e+06 2.42899e-05
  Force max component initial, final = 51742.5 5.91186e-06
  Final line search alpha, max atom move = 1 5.91186e-06
  Iterations, force evaluations = 927 1751

Pair  time (%) = 6.86885 (92.7301)
Neigh time (%) = 0.0435446 (0.587856)
Comm  time (%) = 0.141662 (1.91244)
Outpt time (%) = 0.299016 (4.03674)
Other time (%) = 0.0542854 (0.732858)

Nlocal:    780 ave 780 max 780 min
Histogram: 1 0 0 0 0 0 0 0 0 0
Nghost:    8733 ave 8733 max 8733 min
Histogram: 1 0 0 0 0 0 0 0 0 0
Neighs:    87795 ave 87795 max 87795 min
Histogram: 1 0 0 0 0 0 0 0 0 0
FullNghs:  175602 ave 175602 max 175602 min
Histogram: 1 0 0 0 0 0 0 0 0 0

Total # of neighbors = 175602
Ave neighs/atom = 225.131
Neighbor list builds = 14
Dangerous builds = 0
undump 1

 # ---------- Run Minimization 2---------------------
# Now allow the box to expand/contract perpendicular to the grain boundary
reset_timestep 0
thermo 10
thermo_style custom step pe lx ly lz press pxx pyy pzz c_eatoms
fix 1 all box/relax y 0 vmax 0.001
min_style cg
minimize 1e-15 1e-15 5000 5000
WARNING: Resetting reneighboring criteria during minimization (../min.cpp:168)
Memory usage per processor = 4.27811 Mbytes
Step PotEng Lx Ly Lz Press Pxx Pyy Pzz eatoms 
       0   -1666.7708    12.807225    128.07225        3.715    1630379.1    1599968.6    1573838.4    1717330.4   -1666.7708 
      10   -1724.5795    12.807225    129.35297        3.715    1551919.4      1537422    1467333.7    1651002.5   -1724.5795 
      20   -1778.4754    12.807225    130.63369        3.715    1477716.8    1477740.3    1368007.7    1587402.3   -1778.4754 
      30   -1828.7243    12.807225    131.91441        3.715    1407561.4    1420784.3    1275495.1    1526404.7   -1828.7243 
      40   -1875.5792    12.807225    133.19513        3.715    1341265.1    1366425.6      1189474    1467895.9   -1875.5792 
      50   -1919.2807    12.807225    134.47586        3.715    1278641.9    1314541.4    1109614.8    1411769.6   -1919.2807 
      60   -1960.0565    12.807225    135.75658        3.715      1219497    1265010.8    1035555.5    1357924.8   -1960.0565 
      70   -1998.1198    12.807225     137.0373        3.715    1163624.3    1217713.4     966895.5    1306264.1   -1998.1198 
      80   -2033.6675    12.807225    138.31802        3.715    1110806.1    1172529.8    903195.87    1256692.5   -2033.6675 
      90   -2066.8798    12.807225    139.59875        3.715    1060820.5    1129342.5    844001.68    1209117.3   -2066.8798 
     100   -2097.9195    12.807225    140.87947        3.715    1013451.3    1088038.1    788867.95    1163447.9   -2097.9195 
     110   -2126.9329    12.807225    142.16019        3.715     968494.3    1048508.1    737379.33    1119595.4   -2126.9329 
     120    -2154.052    12.807225    143.44091        3.715    925771.89    1010651.7    689189.47    1077474.5    -2154.052 
     130   -2179.3969    12.807225    144.72164        3.715    885139.62    974375.91     644039.9    1037003.1   -2179.3969 
     140   -2203.0796    12.807225    146.00236        3.715    846481.22    939595.36    601745.06    998103.25   -2203.0796 
     150   -2225.2058    12.807225    147.28308        3.715    809695.07    906230.93    562153.27    960701.03   -2225.2058 
     160   -2245.8755    12.807225     148.5638        3.715    774682.14    874208.11     525112.1    924726.21   -2245.8755 
     170   -2265.1825    12.807225    149.84453        3.715    741341.95    843456.57    490456.41    890112.88   -2265.1825 
     180   -2283.2144    12.807225    151.12525        3.715    709574.33    813909.92    458014.11    856798.97   -2283.2144 
     190   -2300.0522    12.807225    152.40597        3.715    679282.84    785505.75    427617.36     824725.4   -2300.0522 
     200   -2315.7706    12.807225    153.68669        3.715    650378.16    758185.56     399113.2    793835.72   -2315.7706 
     210   -2330.4393    12.807225    154.96742        3.715    622782.48    731894.89    372376.74    764075.81   -2330.4393 
     220   -2344.1236    12.807225    156.24814        3.715    596428.97    706583.23     347309.7    735393.99   -2344.1236 
     230   -2356.8853    12.807225    157.52886        3.715    571255.76    682203.37    323822.86    707741.06   -2356.8853 
     240    -2368.783    12.807225    158.80958        3.715     547203.6    658711.09    301828.92     681070.8    -2368.783 
     250   -2379.8716    12.807225    160.09031        3.715    524214.85    636064.88    281239.32    655340.34   -2379.8716 
     260   -2390.2031    12.807225    161.37103        3.715    502233.92    614225.75    261965.64    630510.36   -2390.2031 
     270   -2399.8258    12.807225    162.65175        3.715    481206.89       593157    243918.82    606544.86   -2399.8258 
     280   -2408.7847    12.807225    163.93247        3.715    461080.37     572823.7    227006.88    583410.51   -2408.7847 
     290   -2417.1213    12.807225     165.2132        3.715    441799.92    553192.23    211131.57    561075.97   -2417.1213 
     300    -2424.873    12.807225    166.49392        3.715    423309.33    534230.02    196186.75    539511.22    -2424.873 
     310   -2432.0731    12.807225    167.77464        3.715    405550.83    515905.48    182060.04    518686.96   -2432.0731 
     320   -2438.7508    12.807225    169.05536        3.715    388467.11    498188.23       168639     498574.1   -2438.7508 
     330   -2444.9309    12.807225    170.33609        3.715    372004.45    481049.38    155820.51    479143.46   -2444.9309 
     340    -2450.635    12.807225    171.61681        3.715    356115.89    464461.96    143520.05    460365.66    -2450.635 
     350   -2455.8815    12.807225    172.89753        3.715    340762.84    448401.13    131676.25    442211.14   -2455.8815 
     360   -2460.6873    12.807225    174.17825        3.715    325914.15       432844    120247.84    424650.62   -2460.6873 
     370   -2465.0678    12.807225    175.45898        3.715    311543.34    417769.01    109205.18    407655.84   -2465.0678 
     380   -2469.0376    12.807225     176.7397        3.715    297626.87    403155.55    98524.355    391200.71   -2469.0376 
     390   -2472.6104    12.807225    178.02042        3.715    284143.72    388983.76    88185.062    375262.33   -2472.6104 
     400   -2475.7995    12.807225    179.30114        3.715    271075.97    375234.43    78171.742    359821.74   -2475.7995 
     410   -2478.6179    12.807225    180.58187        3.715    258409.71       361889    68476.307    344863.82   -2478.6179 
     420   -2481.0786    12.807225    181.86259        3.715    246134.37     348929.5    59097.424    330376.19   -2481.0786 
     430   -2483.1952    12.807225    183.14331        3.715    234240.96     336338.2    50037.296     316347.4   -2483.1952 
     440   -2484.9821    12.807225    184.42403        3.715    222720.69    324097.58     41299.23    302765.27   -2484.9821 
     450   -2486.4554    12.807225    185.70476        3.715    211563.97    312189.81    32886.874    289615.24   -2486.4554 
     460   -2487.6338    12.807225    186.98548        3.715    200757.94    300595.34    24799.584    276878.88   -2487.6338 
     470   -2488.5429    12.807225     188.2662        3.715    190283.79     289288.8     17031.08    264531.48   -2488.5429 
     480   -2489.2302    12.807225    189.54692        3.715    180110.21     278223.5    9573.5558    252533.56   -2489.2302 
     490   -2489.8904    12.807225    190.82765        3.715    170130.06    267200.15    2435.4911    240754.52   -2489.8904 
     500   -2504.0287    12.807225    191.59608        3.715    157117.87     245626.9    712.81219    225013.88   -2504.0287 
     510   -2518.2276    12.807225    192.36451        3.715    143798.37    222970.83   -391.81607     208816.1   -2518.2276 
     520   -2522.2605    12.807225    192.36451        3.715    141585.85    218144.63    589.39562    206023.51   -2522.2605 
     530   -2525.5295    12.807225    192.62066        3.715    137922.71     212210.8   -29.000156    201586.33   -2525.5295 
     540   -2534.6833    12.807225     192.8768        3.715    131018.68    199074.73     1006.207     192975.1   -2534.6833 
     550   -2537.4231    12.807225    193.13295        3.715    127656.37    193744.39    319.44679    188905.28   -2537.4231 
     560   -2540.4041    12.807225    193.38909        3.715    124168.63    188114.62   -278.59814    184669.88   -2540.4041 
     570   -2542.7196    12.807225    193.38909        3.715    122895.32     185254.1    419.73823    183012.11   -2542.7196 
     580    -2544.864    12.807225    193.64523        3.715    119877.31    180655.57   -405.52216     179381.9    -2544.864 
     590   -2548.2448    12.807225    193.64523        3.715    118024.13    176456.52    673.35934     176942.5   -2548.2448 
     600     -2550.09    12.807225    193.90138        3.715    115179.97    172234.24   -227.00483    173532.67     -2550.09 
     610   -2554.2027    12.807225    194.15752        3.715    111105.86    165191.25    -345.3021    168471.61   -2554.2027 
     620   -2560.2806    12.807225    194.15752        3.715     107802.8    157622.82    1820.5793       163965   -2560.2806 
     630   -2561.1012    12.807225    194.41367        3.715    105533.16    154717.91    573.25869    161308.33   -2561.1012 
     640   -2562.6487    12.807225    194.66981        3.715    102874.73    150925.88   -406.70593    158105.02   -2562.6487 
     650   -2563.5845    12.807225    194.66981        3.715    102368.08    149780.66   -68.883496    157392.46   -2563.5845 
     660   -2564.9315    12.807225    194.66981        3.715    101639.19    148136.77    423.45463    156357.33   -2564.9315 
     670   -2566.7758    12.807225    194.66981        3.715    100641.97    145896.35    1109.4168    154920.13   -2566.7758 
     680   -2567.5114    12.807225    194.92596        3.715    98428.211    143139.46   -177.44481    152322.62   -2567.5114 
     690   -2569.7494    12.807225    194.92596        3.715    97218.635    140460.86     658.7309    150536.32   -2569.7494 
     700    -2580.438    12.807225    195.68806        3.715    86065.287       122322    440.91728    135432.95    -2580.438 
     710   -2581.1724    12.807225    195.68806        3.715    85664.788    121533.65    686.97633    134773.74   -2581.1724 
     720   -2582.9687    12.807225    195.94421        3.715    82886.271    117814.49   -315.53899    131159.87   -2582.9687 
     730   -2583.8045    12.807225    195.94421        3.715    82433.118    116944.74   -25.635466    130380.25   -2583.8045 
     740   -2585.3204    12.807225    195.94421        3.715    81612.725    115385.83    511.41899    128940.92   -2585.3204 
     750   -2586.5472    12.807225    195.94421        3.715    80950.296    114146.93    952.24721    127751.71   -2586.5472 
     760   -2587.2775    12.807225    196.20035        3.715    78758.503    111624.04   -425.82361    125077.29   -2587.2775 
     770    -2587.917    12.807225    196.20035        3.715    78413.901    110994.52   -197.12014     124444.3    -2587.917 
     780   -2589.1866    12.807225    196.20035        3.715    77730.467    109758.28    262.44785    123170.67   -2589.1866 
     790   -2589.8535    12.807225    196.20035        3.715    77371.935    109116.91    506.01418    122492.88   -2589.8535 
     800   -2591.0018    12.807225    196.20035        3.715    76755.157     108023.7    930.12907    121311.64   -2591.0018 
     810   -2591.8059    12.807225     196.4565        3.715     74529.51    105490.14    -432.6215    118531.02   -2591.8059 
     820   -2592.4622    12.807225     196.4565        3.715     74177.53    104880.25     -191.081    117843.42   -2592.4622 
     830   -2593.9323    12.807225     196.4565        3.715    73389.771    103527.67    358.28914    116283.36   -2593.9323 
     840   -2594.6171    12.807225     196.4565        3.715     73023.04    102904.84    616.72472    115547.56   -2594.6171 
     850   -2595.9123    12.807225    196.71264        3.715     70539.72    99976.862   -567.06662    112209.37   -2595.9123 
     860    -2596.559    12.807225    196.71264        3.715     70193.68    99401.381   -322.25279    111501.91    -2596.559 
     870   -2597.6115    12.807225    196.71264        3.715    69630.665    98470.704    80.851791    110340.44   -2597.6115 
     880   -2598.5429    12.807225    196.71264        3.715     69132.52    97652.679    442.14901    109302.73   -2598.5429 
     890    -2599.338    12.807225    196.71264        3.715    68707.234    96958.163    753.96824    108409.57    -2599.338 
     900   -2600.5375    12.807225    196.96879        3.715    66279.198    94174.656   -469.41171    105132.35   -2600.5375 
     910   -2601.1945    12.807225    196.96879        3.715    65927.624     93609.02    -210.5014    104384.35   -2601.1945 
     920   -2602.4839    12.807225    196.96879        3.715    65237.379     92502.44    305.47828    102904.22   -2602.4839 
     930   -2603.1644    12.807225    196.96879        3.715    64872.907    91920.171    581.23074    102117.32   -2603.1644 
     940   -2605.3906    12.807225    197.22493        3.715    61896.994    88297.958   -215.82727    97608.851   -2605.3906 
     950   -2606.6286    12.807225    197.22493        3.715    61232.037    87246.884    298.77629    96150.452   -2606.6286 
     960   -2607.2897    12.807225    197.22493        3.715    60876.548     86685.16    577.10356    95367.381   -2607.2897 
     970    -2608.598    12.807225    197.48108        3.715    58392.864    83864.794   -600.13102    91913.928    -2608.598 
     980   -2609.2142    12.807225    197.48108        3.715    58060.674    83342.036     -338.969    91178.955   -2609.2142 
     990   -2610.1666    12.807225    197.48108        3.715    57546.728    82532.397    69.444789    90038.342   -2610.1666 
    1000   -2611.0704    12.807225    197.48108        3.715    57058.284    81761.378     461.9523    88951.521   -2611.0704 
    1010   -2611.7967    12.807225    197.48108        3.715    56665.237    81139.856    780.39979    88075.456   -2611.7967 
    1020   -2612.8866    12.807225    197.73722        3.715    54298.439    78514.502   -494.29102    84875.105   -2612.8866 
    1030   -2613.4607    12.807225    197.73722        3.715    53986.669    78021.657   -242.71731    84181.067   -2613.4607 
    1040      -2617.1    12.807225    197.99337        3.715    50232.989    73194.603   -346.94683    77851.311      -2617.1 
    1050   -2617.8049    12.807225    197.99337        3.715    49845.909    72575.788   -36.375034    76998.314   -2617.8049 
    1060   -2618.8995    12.807225    197.99337        3.715    49244.103    71609.755     450.7758    75671.779   -2618.8995 
    1070   -2619.4578    12.807225    197.99337        3.715    48936.614    71114.106    699.28266    74996.455   -2619.4578 
    1080   -2621.3941    12.807225    198.24951        3.715    46099.511    67731.888   -224.86648    70791.513   -2621.3941 
    1090    -2625.506    12.807225    198.50565        3.715    42056.124    62376.228   -152.11865    63944.262    -2625.506 
    1100   -2630.8411    12.807225     198.7618        3.715     37311.03    55805.189     347.9375    55779.962   -2630.8411 
    1110   -2631.2104    12.807225     198.7618        3.715    37103.313    55454.788    481.06051    55374.089   -2631.2104 
    1120   -2631.5806    12.807225     198.7618        3.715    36895.269     55103.11    614.29789    54968.398   -2631.5806 
    1130   -2632.0465    12.807225     198.7618        3.715    36633.731    54660.035    781.49891     54459.66   -2632.0465 
    1140   -2633.3446    12.807225    199.01794        3.715    34146.456    51819.298   -611.36178    51231.433   -2633.3446 
    1150   -2633.6902    12.807225    199.01794        3.715    33953.098    51490.533   -493.47151    50862.233   -2633.6902 
    1160   -2634.0186    12.807225    199.01794        3.715    33769.501    51177.892   -382.19963    50512.811   -2634.0186 
    1170   -2634.3724    12.807225    199.01794        3.715    33571.819    50840.755   -263.13924    50137.843   -2634.3724 
    1180   -2634.8551    12.807225    199.01794        3.715    33302.316    50380.273   -102.05055    49628.727   -2634.8551 
    1190   -2635.7856    12.807225    199.01794        3.715    32783.653    49491.162    204.33889    48655.458   -2635.7856 
    1200   -2636.1817    12.807225    199.01794        3.715    32563.146    49112.012    331.94881    48245.477   -2636.1817 
    1210   -2636.5072    12.807225    199.01794        3.715    32382.132    48800.257    435.69977     47910.44   -2636.5072 
    1220   -2636.8175    12.807225    199.01794        3.715    32209.633    48502.729    533.74264    47592.428   -2636.8175 
    1230   -2637.1423    12.807225    199.01794        3.715    32029.242    48191.122    635.41686    47261.187   -2637.1423 
    1240   -2637.5293    12.807225    199.01794        3.715    31814.466    47819.481    755.35439    46868.563   -2637.5293 
    1250   -2638.8529    12.807225    199.01794        3.715    31081.523    46545.414    1161.8074    45537.348   -2638.8529 
    1260   -2639.1928    12.807225    199.27409        3.715     29136.08    44634.511   -628.95858    43402.688   -2639.1928 
    1270   -2639.4958    12.807225    199.27409        3.715    28968.565    44342.858   -543.38456    43106.222   -2639.4958 
    1280   -2639.7793    12.807225    199.27409        3.715    28812.014    44069.829   -464.10586    42830.318   -2639.7793 
    1290   -2640.0613    12.807225    199.27409        3.715    28656.373    43797.936    -385.9429    42557.127   -2640.0613 
    1300   -2640.3584    12.807225    199.27409        3.715    28492.507    43511.173   -304.34179    42270.691   -2640.3584 
    1310   -2640.6986    12.807225    199.27409        3.715    28305.065    43182.506   -211.84827    41944.536   -2640.6986 
    1320   -2641.1863    12.807225    199.27409        3.715    28036.577    42710.493    -80.81688    41480.054   -2641.1863 
    1330    -2642.124    12.807225    199.27409        3.715    27521.341    41800.345    166.72877     40596.95    -2642.124 
    1340   -2642.5133    12.807225    199.27409        3.715    27307.672    41421.225    266.66978    40235.121   -2642.5133 
    1350   -2642.8201    12.807225    199.27409        3.715    27139.491    41122.093    344.48354    39951.896   -2642.8201 
    1360    -2643.096    12.807225    199.27409        3.715    26988.272    40852.573    413.84749    39698.395    -2643.096 
    1370   -2643.3592    12.807225    199.27409        3.715    26844.137    40595.179    479.44896    39457.783   -2643.3592 
    1380   -2643.6204    12.807225    199.27409        3.715    26701.188    40339.414    544.02928    39220.122   -2643.6204 
    1390   -2643.8891    12.807225    199.27409        3.715    26554.152    40075.819    609.96978    38976.667   -2643.8891 
    1400   -2644.1783    12.807225    199.27409        3.715    26396.072    39791.835    680.33042    38716.051   -2644.1783 
    1410   -2644.5128    12.807225    199.27409        3.715    26213.272    39462.665    761.03399    38416.116   -2644.5128 
    1420   -2644.9853    12.807225    199.27409        3.715    25955.281    38996.658    873.84356    37995.341   -2644.9853 
    1430   -2646.1731    12.807225    199.53023        3.715    23553.667    36259.104   -770.22472    35172.122   -2646.1731 
    1440   -2646.5083    12.807225    199.53023        3.715    23371.065    35926.435   -696.19813    34882.957   -2646.5083 
    1450   -2646.7896    12.807225    199.53023        3.715     23217.84    35646.608    -634.5684    34641.482   -2646.7896 
    1460   -2647.0455    12.807225    199.53023        3.715    23078.499    35391.597   -578.89162    34422.792   -2647.0455 
    1470   -2647.2881    12.807225    199.53023        3.715     22946.46    35149.478   -526.44556    34216.347   -2647.2881 
    1480   -2647.5245    12.807225    199.53023        3.715    22817.837    34913.182   -475.64224     34015.97   -2647.5245 
    1490     -2647.76    12.807225    199.53023        3.715    22689.704    34677.357   -425.30553    33817.062     -2647.76 
    1500   -2647.9997    12.807225    199.53023        3.715    22559.293    34436.897   -374.34725     33615.33   -2647.9997 
    1510   -2648.2498    12.807225    199.53023        3.715    22423.313    34185.698   -321.49989    33405.742   -2648.2498 
    1520   -2648.5191    12.807225    199.53023        3.715    22276.879    33914.652   -264.90686    33180.892   -2648.5191 
    1530   -2648.8249    12.807225    199.53023        3.715    22110.671    33606.339   -201.05445     32926.73   -2648.8249 
    1540   -2649.2156    12.807225    199.53023        3.715    21898.384    33211.525   -120.04835    32603.676   -2649.2156 
    1550   -2650.4876    12.807225    199.53023        3.715    21207.959    31919.258    142.74671    31561.873   -2650.4876 
    1560   -2650.8611    12.807225    199.53023        3.715    21005.147    31537.783    217.24746     31260.41   -2650.8611 
    1570   -2651.1537    12.807225    199.53023        3.715    20846.314    31238.375    275.18187    31025.386   -2651.1537 
    1580   -2651.4113    12.807225    199.53023        3.715    20706.482    30974.317    325.91226    30819.216   -2651.4113 
    1590   -2651.6495    12.807225    199.53023        3.715    20577.259    30729.914    372.57189     30629.29   -2651.6495 
    1600    -2651.876    12.807225    199.53023        3.715    20454.392    30497.206    416.74041    30449.231    -2651.876 
    1610   -2652.0957    12.807225    199.53023        3.715     20335.23    30271.213    459.39517     30275.08   -2652.0957 
    1620   -2652.3122    12.807225    199.53023        3.715    20217.829    30048.284     501.2424     30103.96   -2652.3122 
    1630   -2652.5286    12.807225    199.53023        3.715    20100.547    29825.311     542.8723    29933.457   -2652.5286 
    1640   -2652.7477    12.807225    199.53023        3.715    19981.773    29599.237    584.85137    29761.231   -2652.7477 
    1650    -2652.973    12.807225    199.53023        3.715    19859.687     29366.59    627.80898    29584.662    -2652.973 
    1660   -2653.2088    12.807225    199.53023        3.715    19731.916    29122.828    672.55756    29400.363   -2653.2088 
    1670   -2653.4619    12.807225    199.53023        3.715     19594.88    28861.082    720.30689     29203.25   -2653.4619 
    1680   -2653.7439    12.807225    199.53023        3.715    19442.157    28569.019    773.21947    28984.232   -2653.7439 
    1690   -2654.0827    12.807225    199.53023        3.715    19258.792    28217.891    836.31986    28722.165   -2654.0827 
    1700   -2654.6001    12.807225    199.53023        3.715     18978.85    27680.907     931.7943    28323.847   -2654.6001 
    1710   -2655.7288    12.807225    199.78638        3.715    16618.915    24975.382   -832.74017    25714.103   -2655.7288 
    1720   -2656.0618    12.807225    199.78638        3.715    16438.748    24629.577   -776.62142    25463.289   -2656.0618 
    1730   -2656.3369    12.807225    199.78638        3.715     16289.93    24343.768   -730.79654    25256.819   -2656.3369 
    1740   -2656.5824    12.807225    199.78638        3.715    16157.134     24088.62   -690.32761    25073.111   -2656.5824 
    1750   -2656.8097    12.807225    199.78638        3.715    16034.119    23852.187   -653.21094    24903.382   -2656.8097 
    1760   -2657.0252    12.807225    199.78638        3.715    15917.556    23628.099    -618.3875    24742.956   -2657.0252 
    1770   -2657.2325    12.807225    199.78638        3.715    15805.378    23412.402   -585.20436    24588.935   -2657.2325 
    1780   -2657.4344    12.807225    199.78638        3.715    15696.156    23202.365   -553.22033    24439.325   -2657.4344 
    1790   -2657.6327    12.807225    199.78638        3.715    15588.818    22995.929   -522.11013    24292.634   -2657.6327 
    1800   -2657.8291    12.807225    199.78638        3.715    15482.485    22791.421   -491.61911    24147.653   -2657.8291 
    1810   -2658.0251    12.807225    199.78638        3.715    15376.392    22587.373   -461.53321    24003.335   -2658.0251 
    1820   -2658.2219    12.807225    199.78638        3.715    15269.814    22382.402   -431.65913      23858.7   -2658.2219 
    1830   -2658.4209    12.807225    199.78638        3.715    15162.019    22175.104   -401.81203    23712.766   -2658.4209 
    1840   -2658.6236    12.807225    199.78638        3.715     15052.21    21963.956   -371.79938    23564.473   -2658.6236 
    1850   -2658.8316    12.807225    199.78638        3.715    14939.458    21747.184   -341.40723    23412.599   -2658.8316 
    1860   -2659.0471    12.807225    199.78638        3.715    14822.612    21522.581   -310.37987    23255.633   -2659.0471 
    1870   -2659.2728    12.807225    199.78638        3.715    14700.136    21287.216   -278.38625    23091.578   -2659.2728 
    1880   -2659.5129    12.807225    199.78638        3.715    14569.833    21036.884   -244.96087    22917.577   -2659.5129 
    1890   -2659.7736    12.807225    199.78638        3.715    14428.254    20764.987   -209.38248    22729.158   -2659.7736 
    1900    -2660.066    12.807225    199.78638        3.715     14269.27    20459.805   -170.37864    22518.383    -2660.066 
    1910   -2660.4147    12.807225    199.78638        3.715    14079.568    20095.877   -125.19656    22268.023   -2660.4147 
    1920   -2660.9012    12.807225    199.78638        3.715    13814.448    19587.703   -64.590324    21920.231   -2660.9012 
    1930   -2662.0598    12.807225    199.78638        3.715    13181.061    18375.929    68.222214    21099.033   -2662.0598 
    1940   -2662.5877    12.807225    199.78638        3.715    12891.027    17823.088    121.17782    20728.816   -2662.5877 
    1950   -2662.9588    12.807225    199.78638        3.715    12686.566    17434.099    155.58823     20470.01   -2662.9588 
    1960    -2663.273    12.807225    199.78638        3.715    12513.091    17104.579    182.85941    20251.834    -2663.273 
    1970   -2663.5554    12.807225    199.78638        3.715     12356.87    16808.275    205.86559    20056.471   -2663.5554 
    1980    -2663.817    12.807225    199.78638        3.715    12211.848    16533.614    225.87281    19876.058    -2663.817 
    1990    -2664.064    12.807225    199.78638        3.715     12074.71    16274.267    243.56587    19706.297    -2664.064 
    2000   -2664.3001    12.807225    199.78638        3.715    11943.408     16026.33    259.36303    19544.532   -2664.3001 
    2010   -2664.5278    12.807225    199.78638        3.715    11816.574    15787.195    273.53788    19388.989   -2664.5278 
    2020   -2664.7488    12.807225    199.78638        3.715    11693.238    15555.019    286.28003    19238.414   -2664.7488 
    2030   -2664.9645    12.807225    199.78638        3.715    11572.682    15328.443    297.72217    19091.882   -2664.9645 
    2040   -2665.1758    12.807225    199.78638        3.715     11454.36    15106.433    307.96096    18948.687   -2665.1758 
    2050   -2665.3836    12.807225    199.78638        3.715    11337.842     14888.18    317.06874    18808.279   -2665.3836 
    2060   -2665.5885    12.807225    199.78638        3.715    11222.783    14673.036    325.09828    18670.215   -2665.5885 
    2070   -2665.7909    12.807225    199.78638        3.715    11108.899    14460.475     332.0881    18534.135   -2665.7909 
    2080   -2665.9914    12.807225    199.78638        3.715    10995.955    14250.059    338.06663    18399.738   -2665.9914 
    2090   -2666.1902    12.807225    199.78638        3.715    10883.747    14041.415    343.05383    18266.773   -2666.1902 
    2100   -2666.3877    12.807225    199.78638        3.715    10772.102    13834.225    347.06316    18135.018   -2666.3877 
    2110   -2666.5842    12.807225    199.78638        3.715    10660.862    13628.205    350.09992    18004.281   -2666.5842 
    2120     -2666.78    12.807225    199.78638        3.715    10549.886    13423.104    352.16661    17874.388     -2666.78 
    2130   -2666.9751    12.807225    199.78638        3.715    10439.042    13218.686     353.2625    17745.178   -2666.9751 
    2140     -2667.17    12.807225    199.78638        3.715    10328.203    13014.727     353.3801    17616.501     -2667.17 
    2150   -2667.3648    12.807225    199.78638        3.715    10217.242     12811.01    352.51023    17488.207   -2667.3648 
    2160   -2667.5597    12.807225    199.78638        3.715    10106.033    12607.311    350.63978    17360.147   -2667.5597 
    2170    -2667.755    12.807225    199.78638        3.715    9994.4396    12403.398    347.75117    17232.169    -2667.755 
    2180   -2667.9509    12.807225    199.78638        3.715    9882.3183    12199.024     343.8237    17104.107   -2667.9509 
    2190   -2668.1476    12.807225    199.78638        3.715    9769.5078    11993.911    338.83068    16975.782   -2668.1476 
    2200   -2668.3456    12.807225    199.78638        3.715    9655.8262    11787.746    332.74018    16846.993   -2668.3456 
    2210   -2668.5451    12.807225    199.78638        3.715    9541.0607    11580.165    325.51223    16717.505   -2668.5451 
    2220   -2668.7466    12.807225    199.78638        3.715     9424.961    11370.737    317.09954    16587.046   -2668.7466 
    2230   -2668.9505    12.807225    199.78638        3.715    9307.2229    11158.939    307.44122    16455.288   -2668.9505 
    2240   -2669.1576    12.807225    199.78638        3.715     9187.471    10944.127    296.46111    16321.825   -2669.1576 
    2250   -2669.3686    12.807225    199.78638        3.715    9065.2344    10725.487    284.06284    16186.153   -2669.3686 
    2260   -2669.5845    12.807225    199.78638        3.715    8939.9011    10501.967    270.11738    16047.619   -2669.5845 
    2270   -2669.8067    12.807225    199.78638        3.715    8810.6568    10272.163    254.45224    15905.355   -2669.8067 
    2280   -2670.0372    12.807225    199.78638        3.715    8676.3755    10034.133    236.82692    15758.167   -2670.0372 
    2290   -2670.2786    12.807225    199.78638        3.715    8535.4248     9785.063    216.88797    15604.323   -2670.2786 
    2300   -2670.5352    12.807225    199.78638        3.715    8385.2797    9520.6007    194.08796     15441.15   -2670.5352 
    2310   -2670.8142    12.807225    199.78638        3.715    8221.6595    9233.3654    167.49519    15264.118   -2670.8142 
    2320   -2671.1298    12.807225    199.78638        3.715    8036.1651     8908.876    135.27924     15064.34   -2671.1298 
    2330   -2671.5185    12.807225    199.78638        3.715    7807.1432    8509.7792    92.742559    14818.908   -2671.5185 
    2340   -2672.2099    12.807225    199.78638        3.715     7398.443    7801.0168    10.650566    14383.662   -2672.2099 
    2350   -2673.2768    12.807225    199.78638        3.715      6765.95    6709.0402    -125.4041    13714.214   -2673.2768 
    2360   -2673.6076    12.807225    199.78638        3.715    6568.8817    6371.0994   -171.64135    13507.187   -2673.6076 
    2370   -2673.8804    12.807225    199.78638        3.715    6406.3244    6092.4824   -210.08301    13336.574   -2673.8804 
    2380   -2674.1226    12.807225    199.78638        3.715     6261.972    5845.1355   -244.35642    13185.137   -2674.1226 
    2390   -2674.3457    12.807225    199.78638        3.715     6129.079    5617.4488   -275.95778    13045.746   -2674.3457 
    2400   -2674.5555    12.807225    199.78638        3.715    6004.0573     5403.248   -305.68522    12914.609   -2674.5555 
    2410   -2674.7558    12.807225    199.78638        3.715    5884.7217    5198.7698   -334.02131    12789.417   -2674.7558 
    2420   -2674.9492    12.807225    199.78638        3.715    5769.6147    5001.5027   -361.28637    12668.628   -2674.9492 
    2430   -2675.1372    12.807225    199.78638        3.715     5657.698    4809.6578    -387.7077    12551.144   -2675.1372 
    2440   -2675.3212    12.807225    199.78638        3.715    5548.1927    4621.8927   -413.45581    12436.141   -2675.3212 
    2450   -2675.5024    12.807225    199.78638        3.715    5440.4903    4437.1571   -438.66052    12322.974   -2675.5024 
    2460   -2675.6814    12.807225    199.78638        3.715    5334.0945     4254.594   -463.42747    12211.117   -2675.6814 
    2470   -2675.8591    12.807225    199.78638        3.715     5228.586    4073.4789   -487.84424    12100.123   -2675.8591 
    2480    -2676.036    12.807225    199.78638        3.715    5123.5989    3893.1782   -511.98528    11989.604    -2676.036 
    2490   -2676.2127    12.807225    199.78638        3.715    5018.7995    3713.1136   -535.91671    11879.202   -2676.2127 
    2500   -2676.3898    12.807225    199.78638        3.715    4913.8735    3532.7405   -559.70037     11768.58   -2676.3898 
    2510   -2676.5678    12.807225    199.78638        3.715     4808.513    3351.5241   -583.39377    11657.409   -2676.5678 
    2520   -2676.7473    12.807225    199.78638        3.715    4702.4039    3168.9184   -607.05442    11545.348   -2676.7473 
    2530   -2676.9288    12.807225    199.78638        3.715    4595.2145    2984.3453   -630.74004    11432.038   -2676.9288 
    2540   -2677.1129    12.807225    199.78638        3.715    4486.5807    2797.1702   -654.51335    11317.085   -2677.1129 
    2550   -2677.3005    12.807225    199.78638        3.715    4376.0885    2606.6697   -678.44276    11200.038   -2677.3005 
    2560   -2677.4922    12.807225    199.78638        3.715    4263.2484    2411.9892   -702.60714    11080.363   -2677.4922 
    2570   -2677.6893    12.807225    199.78638        3.715    4147.4641    2212.0853   -727.10189    10957.409   -2677.6893 
    2580    -2677.893    12.807225    199.78638        3.715    4027.9801    2005.6371   -752.04536    10830.349    -2677.893 
    2590    -2678.105    12.807225    199.78638        3.715    3903.7996    1790.9008   -777.59378    10698.092    -2678.105 
    2600   -2678.3278    12.807225    199.78638        3.715    3773.5489    1565.4733   -803.96076    10559.134   -2678.3278 
    2610   -2678.5649    12.807225    199.78638        3.715    3635.2212    1325.8436   -831.45865    10411.279   -2678.5649 
    2620   -2678.8218    12.807225    199.78638        3.715    3485.6612    1066.4922   -860.57794    10251.069   -2678.8218 
    2630   -2679.1081    12.807225    199.78638        3.715    3319.3453    777.75611   -892.17831    10072.458   -2679.1081 
    2640    -2679.444    12.807225    199.78638        3.715    3124.7578    439.49857   -928.05917    9862.8339    -2679.444 
    2650   -2679.8895    12.807225    199.78638        3.715    2867.6015   -8.2434667   -973.58655    9584.6344   -2679.8895 
    2660   -2680.8797    12.807225    199.53023        3.715    4051.8184    482.48485     1012.198    10660.772   -2680.8797 
    2670   -2681.5646    12.807225    199.53023        3.715    3660.7803   -201.88686    956.05333    10228.174   -2681.5646 
    2680   -2681.9566    12.807225    199.53023        3.715    3437.4559    -592.2216    925.43895    9979.1503   -2681.9566 
    2690   -2682.2809    12.807225    199.53023        3.715    3252.8747   -914.26437    900.75116    9772.1372   -2682.2809 
    2700   -2682.5709    12.807225    199.53023        3.715    3087.8649   -1201.4886    878.99261    9586.0906   -2682.5709 
    2710   -2682.8404    12.807225    199.53023        3.715    2934.6035   -1467.5064     858.9173    9412.3996   -2682.8404 
    2720   -2683.0967    12.807225    199.53023        3.715    2788.8676   -1719.6281    839.84454    9246.3864   -2683.0967 
    2730   -2683.3445    12.807225    199.53023        3.715      2647.97   -1962.4667    821.33206    9085.0446   -2683.3445 
    2740   -2683.5871    12.807225    199.53023        3.715    2509.9798   -2199.2975    803.05593     8926.181   -2683.5871 
    2750   -2683.8273    12.807225    199.53023        3.715    2373.3532   -2432.6967    784.74632    8768.0098   -2683.8273 
    2760   -2684.0675    12.807225    199.53023        3.715    2236.7375   -2664.8798    766.16179    8608.9307   -2684.0675 
    2770   -2684.3099    12.807225    199.53023        3.715    2098.8309   -2897.9333    747.05941    8447.3667   -2684.3099 
    2780    -2684.557    12.807225    199.53023        3.715    1958.2721   -3133.9923    727.17449    8281.6341    -2684.557 
    2790   -2684.8114    12.807225    199.53023        3.715    1813.5303   -3375.4092     706.1984    8109.8018   -2684.8114 
    2800   -2685.0764    12.807225    199.53023        3.715    1662.7645   -3624.9636    683.74344    7929.5138   -2685.0764 
    2810   -2685.3562    12.807225    199.53023        3.715    1503.6361   -3886.1271    659.29751    7737.7378   -2685.3562 
    2820   -2685.6561    12.807225    199.53023        3.715    1333.0199   -4163.4698    632.14925    7530.3804   -2685.6561 
    2830    -2685.984    12.807225    199.53023        3.715    1146.5689   -4463.2506    601.27269    7301.6847    -2685.984 
    2840   -2686.3507    12.807225    199.53023        3.715    938.05922   -4794.2758    565.13925    7043.3142   -2686.3507 
    2850    -2686.772    12.807225    199.53023        3.715    698.57065   -5168.8812    521.45164    6743.1415    -2686.772 
    2860    -2687.269    12.807225    199.53023        3.715    416.32282   -5602.6668     466.9313     6384.704    -2687.269 
    2870   -2687.8601    12.807225    199.53023        3.715    81.113156   -6106.9759    397.86037     5952.455   -2687.8601 
    2880   -2688.5249    12.807225    199.53023        3.715   -295.50062   -6658.0609    313.14161    5458.4175   -2688.5249 
    2890   -2689.1475    12.807225    199.53023        3.715   -649.98406   -7155.2891    219.29612    4986.0408   -2689.1475 
    2900   -2689.6208    12.807225    199.53023        3.715   -925.10891   -7514.9018    123.11362    4616.4614   -2689.6208 
    2910   -2690.2001    12.807225    199.53023        3.715   -1268.0618   -7927.6638   -31.979131    4155.4575   -2690.2001 
    2920   -2690.6076    12.807225    199.53023        3.715   -1510.6582   -8202.9217   -157.61814    3828.5653   -2690.6076 
    2930    -2691.121    12.807225    199.53023        3.715   -1817.2518     -8534.36    -331.9536    3414.5581    -2691.121 
    2940   -2694.1086    12.807225    199.27364        3.715   -1902.4513    -8666.261    387.28755    2571.6195   -2694.1086 
    2950   -2694.6077    12.807225    199.27364        3.715   -2175.0838   -8879.4251    125.59155    2228.5821   -2694.6077 
    2960   -2695.0377    12.807225    199.27364        3.715    -2442.636   -9042.1364   -134.48108    1848.7095   -2695.0377 
    2970   -2695.7738    12.807225    199.27364        3.715   -2883.9547   -9319.3071    -573.0034    1240.4463   -2695.7738 
    2980   -2697.0159    12.807225     199.0175        3.715   -1852.3707   -8306.6536    863.86806    1885.6734   -2697.0159 
    2990    -2697.382    12.807225     199.0175        3.715   -2063.8554   -8437.8716     664.5678    1581.7377    -2697.382 
    3000   -2698.8083    12.807225     199.0175        3.715   -2849.7987   -8905.2632   -83.715305    439.58234   -2698.8083 
    3010   -2699.0653    12.807225     199.0175        3.715   -3005.9517   -9003.6883   -232.18394    218.01696   -2699.0653 
    3020   -2700.9722    12.807225    199.08086        3.715   -4516.5259    -9965.397   -1797.5349   -1786.6457   -2700.9722 
    3030   -2702.0506    12.807225    198.91607        3.715   -3973.7521   -9241.6052   -978.63667   -1701.0144   -2702.0506 
    3040   -2702.4353    12.807225    198.65993        3.715   -2402.1126    -7778.056    995.35493   -423.63675   -2702.4353 
    3050   -2703.1974    12.807225    198.69505        3.715    -3006.458   -7962.6037    341.51744   -1398.2878   -2703.1974 
    3060   -2705.3314    12.807225    198.58158        3.715   -3267.9611   -7041.8669    257.77219   -3019.7886   -2705.3314 
    3070   -2705.5895    12.807225    198.58158        3.715   -3388.5971   -7098.8319    110.64231   -3177.6017   -2705.5895 
    3080   -2706.0159    12.807225    198.58158        3.715   -3579.1726   -7153.1662   -94.743683    -3489.608   -2706.0159 
    3090   -2706.9974    12.807225    198.58158        3.715   -4034.7812   -7142.4657   -515.20858   -4446.6694   -2706.9974 
    3100   -2708.3738    12.807225     198.5633        3.715   -4480.4037   -6960.4825   -820.79618   -5659.9325   -2708.3738 
    3110   -2708.5831    12.807225     198.5633        3.715   -4588.5073   -6978.3607   -948.09407   -5839.0673   -2708.5831 
    3120    -2708.962    12.807225    198.30716        3.715   -2996.5442   -5464.0598    1055.0204   -4580.5932    -2708.962 
    3130   -2709.6807    12.807225    198.30716        3.715   -3307.0777   -5491.0191      826.859    -5257.073   -2709.6807 
    3140   -2711.7374    12.807225    198.35433        3.715   -4492.9757   -6092.0396    174.26515   -7561.1525   -2711.7374 
    3150   -2711.9477    12.807225    198.35433        3.715   -4633.0942   -6169.0759    65.688093   -7795.8949   -2711.9477 
    3160   -2712.9906    12.807225    198.35433        3.715   -5122.5775   -6395.7483   -94.034478   -8877.9499   -2712.9906 
    3170   -2713.1901    12.807225    198.35433        3.715   -5219.6204   -6550.1175   -25.953905   -9082.7899   -2713.1901 
    3180   -2714.3406    12.807225    198.33261        3.715   -5629.1765     -6802.52    12.753892   -10097.764   -2714.3406 
    3190   -2714.6834    12.807225    198.33261        3.715   -5812.5704   -6837.5504   -200.19524   -10399.966   -2714.6834 
    3200   -2715.3537    12.807225    198.20922        3.715   -5315.3105   -6396.5346    671.75361   -10221.151   -2715.3537 
    3210   -2715.6054    12.807225    198.20922        3.715    -5456.403   -6518.6345    506.12132   -10356.696   -2715.6054 
    3220   -2715.9005    12.807225    198.25808        3.715   -5953.0449   -6921.1556   -44.276644   -10893.703   -2715.9005 
    3230    -2716.115    12.807225     198.1297        3.715   -5185.8744   -6267.4755    914.59265    -10204.74    -2716.115 
    3240    -2716.278    12.807225    198.23545        3.715   -6000.9622   -6986.8179   -45.582971   -10970.486    -2716.278 
    3250   -2717.0509    12.807225    198.31846        3.715   -6969.1896   -7948.4002   -1045.7555   -11913.413   -2717.0509 
    3260   -2717.1363    12.807225    198.07049        3.715   -5308.8921   -6488.1363    1029.1528   -10467.693   -2717.1363 
    3270   -2717.2875    12.807225    198.18799        3.715   -6205.6168   -7263.0729   -53.735851   -11300.042   -2717.2875 
    3280    -2717.492    12.807225    198.10388        3.715   -5734.2532   -6866.2583    586.12842    -10922.63    -2717.492 
    3290   -2718.0975    12.807225    198.26922        3.715   -7182.9003   -8274.3952   -977.54417   -12296.761   -2718.0975 
    3300   -2718.2311    12.807225    198.02331        3.715   -5545.0611   -6770.6118    1067.6247   -10932.196   -2718.2311 
    3310   -2718.7261    12.807225    198.07149        3.715    -6111.601   -7286.5727    551.94871   -11600.179   -2718.7261 
    3320    -2718.948    12.807225    198.32764        3.715   -8010.0947   -8924.6606   -1796.1387   -13309.485    -2718.948 
    3330   -2719.1548    12.807225    197.98275        3.715   -5749.4683   -6973.7385    1062.3843   -11337.051   -2719.1548 
    3340   -2719.9362    12.807225    198.22713        3.715   -7824.9658   -8932.7939   -1239.6653   -13302.438   -2719.9362 
    3350   -2720.0198    12.807225    198.07726        3.715   -6845.0167   -8068.7185    2.7068503   -12469.039   -2720.0198 
    3360   -2720.5656    12.807225      198.191        3.715   -7928.4534   -9316.1085   -917.48212   -13551.769   -2720.5656 
    3370   -2720.8971    12.807225    197.93485        3.715   -6421.7662    -8039.768    1085.3656   -12310.896   -2720.8971 
    3380   -2721.4467    12.807225    198.09855        3.715   -7922.1548   -9575.6224   -327.16683   -13863.675   -2721.4467 
    3390   -2721.5919    12.807225    197.95322        3.715   -7023.5771    -8914.213    863.53281   -13020.051   -2721.5919 
    3400   -2721.8695    12.807225    197.96639        3.715   -7292.7973    -9285.879    682.96433   -13275.477   -2721.8695 
    3410   -2722.1076    12.807225    198.16661        3.715   -8798.1471   -10710.563   -1078.6166   -14605.262   -2722.1076 
    3420   -2722.2266    12.807225    198.15587        3.715    -8774.245   -10766.041   -983.79511   -14572.899   -2722.2266 
    3430    -2722.635    12.807225    198.10828        3.715   -8678.3634   -10763.814    -664.9728   -14606.304    -2722.635 
    3440   -2722.9565    12.807225    198.04612        3.715   -8476.4982    -10515.95   -242.94341   -14670.601   -2722.9565 
    3450   -2723.1332    12.807225    198.11933        3.715   -9099.4438   -11049.446   -964.05578    -15284.83   -2723.1332 
    3460   -2723.2801    12.807225    198.12964        3.715   -9266.1695   -11174.429   -1120.9609   -15503.119   -2723.2801 
    3470   -2723.5102    12.807225    197.96617        3.715   -8315.5334   -10273.395     177.1412   -14850.346   -2723.5102 
    3480   -2723.7103    12.807225    197.99417        3.715   -8676.9809   -10530.147   -226.39285   -15274.403   -2723.7103 
    3490    -2723.846    12.807225    197.83195        3.715   -7659.7862   -9621.0777    1061.6847   -14419.966    -2723.846 
    3500   -2724.0513    12.807225    197.98892        3.715   -8896.0334   -10680.752    -530.2829   -15477.066   -2724.0513 
    3510   -2724.1818    12.807225     197.8315        3.715   -7870.8346   -9763.6215    648.01132   -14496.894   -2724.1818 
    3520   -2724.4016    12.807225    197.85639        3.715   -8145.2626   -9918.1739    82.796092    -14600.41   -2724.4016 
    3530   -2724.5937    12.807225    197.85639        3.715    -8255.861   -10051.974   -1.0127466   -14714.596   -2724.5937 
    3540   -2724.7116    12.807225    197.84965        3.715   -8253.2593   -9934.7678   -27.968288   -14797.042   -2724.7116 
    3550   -2724.8282    12.807225    197.83491        3.715   -8177.6792   -9749.5206      16.3197   -14799.837   -2724.8282 
    3560   -2724.9134    12.807225    197.83761        3.715   -8237.4937   -9778.0904   -96.074613   -14838.316   -2724.9134 
    3570   -2725.0228    12.807225    197.69375        3.715   -7259.9825   -8841.8304    1061.0293   -13999.146   -2725.0228 
    3580   -2725.0742    12.807225    197.79765        3.715   -8011.3843   -9517.8325    122.58635   -14638.907   -2725.0742 
    3590   -2725.0956    12.807225    197.81088        3.715   -8110.2334   -9591.3922   -7.0774376   -14732.231   -2725.0956 
    3600   -2725.1693    12.807225    197.80235        3.715   -8076.0119   -9524.9849    13.623825   -14716.674   -2725.1693 
    3610   -2725.2377    12.807225    197.79934        3.715   -8079.3709   -9506.3482   -3.5087657   -14728.256   -2725.2377 
    3620   -2725.5357    12.807225    197.74422        3.715   -7808.9616     -9184.74    276.93725   -14519.082   -2725.5357 
    3630   -2725.6603    12.807225    197.79424        3.715   -8215.8417   -9479.2693   -247.02403   -14921.232   -2725.6603 
    3640   -2725.7157    12.807225    197.81631        3.715   -8395.8394   -9635.8919   -459.96097   -15091.665   -2725.7157 
    3650   -2725.7362    12.807225    197.77982        3.715     -8148.35   -9482.9131   -107.74064   -14854.396   -2725.7362 
    3660   -2725.8115    12.807225    197.71067        3.715   -7674.5498    -8994.305    426.73598    -14456.08   -2725.8115 
    3670   -2725.8421    12.807225    197.74214        3.715   -7926.2491   -9258.7526    155.16972   -14675.164   -2725.8421 
    3680   -2725.8448    12.807225     197.7393        3.715   -7911.0859   -9235.2004    171.90378   -14669.961   -2725.8448 
    3690   -2725.8498    12.807225    197.73542        3.715   -7893.8808   -9193.0081    197.90299   -14686.537   -2725.8498 
    3700   -2725.8554    12.807225    197.73891        3.715   -7921.7723    -9176.466    155.95452   -14744.805   -2725.8554 
    3710   -2725.8661    12.807225    197.72852        3.715    -7843.844    -9021.334    201.67932   -14711.877   -2725.8661 
    3720   -2725.8801    12.807225    197.72916        3.715    -7840.834    -8924.204    151.93872   -14750.237   -2725.8801 
    3730   -2725.8942    12.807225    197.72665        3.715   -7828.2202   -8875.7384    164.62453   -14773.547   -2725.8942 
    3740   -2725.9291    12.807225    197.72074        3.715   -7785.2619   -8746.3054    196.40987    -14805.89   -2725.9291 
    3750   -2726.0456    12.807225    197.71882        3.715   -7819.5528   -8769.3015    168.89819   -14858.255   -2726.0456 
    3760   -2726.1981    12.807225    197.71886        3.715   -7908.1534   -8913.8181    125.00924   -14935.651   -2726.1981 
    3770   -2726.3051    12.807225    197.71053        3.715   -7931.9089   -9054.0955    143.85216   -14885.483   -2726.3051 
    3780     -2726.34    12.807225    197.79627        3.715   -8535.7818   -9623.7172   -588.65911   -15394.969     -2726.34 
    3790   -2726.3677    12.807225    197.74122        3.715   -8166.8001   -9246.1998   -122.08512   -15132.115   -2726.3677 
    3800   -2726.4378    12.807225    197.67957        3.715   -7756.1191   -8852.4628    387.15097   -14803.045   -2726.4378 
    3810   -2726.4794    12.807225    197.79987        3.715   -8609.1213   -9570.7677   -691.91137   -15564.685   -2726.4794 
    3820   -2726.5074    12.807225    197.71555        3.715   -8039.1783   -9031.5484  -0.71427056   -15085.272   -2726.5074 
    3830   -2726.5252    12.807225    197.71749        3.715   -8057.3597   -9028.3125   -28.107032   -15115.659   -2726.5252 
    3840   -2726.5439    12.807225    197.70788        3.715   -7999.9276   -8957.1614    33.780188   -15076.402   -2726.5439 
    3850   -2726.7653    12.807225    197.67551        3.715   -7894.9624   -8570.8737   -42.726566   -15071.287   -2726.7653 
    3860   -2726.7984    12.807225    197.66556        3.715   -7832.1812   -8442.7012   -9.4859126   -15044.357   -2726.7984 
    3870   -2726.8357    12.807225     197.6617        3.715   -7831.4348   -8382.7919   -63.002213    -15048.51   -2726.8357 
    3880   -2726.8763    12.807225    197.62933        3.715   -7663.6437   -8180.3997    55.641868   -14866.173   -2726.8763 
    3890   -2726.9908    12.807225    197.43104        3.715   -6336.9767   -6869.6802     1587.554   -13728.804   -2726.9908 
    3900   -2727.0174    12.807225    197.62159        3.715   -7665.9564   -8006.1999    -94.40723   -14897.262   -2727.0174 
    3910   -2727.0309    12.807225    197.59279        3.715    -7472.431   -7815.6982     136.6098   -14738.205   -2727.0309 
    3920    -2727.042    12.807225    197.55811        3.715   -7238.6017   -7593.4114    415.69662    -14538.09    -2727.042 
    3930   -2727.1397    12.807225    197.46778        3.715   -6687.5004   -6967.5341    975.98007   -14070.947   -2727.1397 
    3940   -2727.1697    12.807225    197.59085        3.715   -7543.2095   -7810.7724   -9.3578805   -14809.498   -2727.1697 
    3950   -2727.1763    12.807225    197.65275        3.715   -7964.1553   -8245.7563   -435.15836   -15211.551   -2727.1763 
    3960   -2727.1907    12.807225    197.58929        3.715   -7521.5589   -7836.1905    94.396928   -14822.883   -2727.1907 
    3970   -2727.1948    12.807225    197.57943        3.715   -7464.7134   -7762.9304    120.68981     -14751.9   -2727.1948 
    3980   -2727.1977    12.807225     197.5766        3.715   -7461.6171   -7742.6536    102.92342   -14745.121   -2727.1977 
    3990   -2727.1998    12.807225    197.57838        3.715   -7487.4605   -7757.5608    77.157299   -14781.978   -2727.1998 
    4000   -2727.2021    12.807225    197.57973        3.715    -7498.426   -7773.9386    84.731848   -14806.071   -2727.2021 
    4010   -2727.2054    12.807225    197.57843        3.715   -7478.6286      -7747.6    112.05968   -14800.346   -2727.2054 
    4020   -2727.2095    12.807225     197.5815        3.715   -7484.8325   -7735.0561    102.15562   -14821.597   -2727.2095 
    4030   -2727.2207    12.807225    197.58447        3.715   -7486.7438   -7732.0287    154.20801   -14882.411   -2727.2207 
    4040   -2727.2338    12.807225    197.59484        3.715     -7553.73   -7855.8278    188.36696   -14993.729   -2727.2338 
    4050    -2727.249    12.807225      197.611        3.715   -7659.5554   -8052.2277      183.232    -15109.67    -2727.249 
    4060   -2727.2675    12.807225    197.61796        3.715   -7689.8519   -8168.7719     196.8195   -15097.603   -2727.2675 
    4070     -2727.29    12.807225    197.61283        3.715   -7630.7361   -8216.8451     346.6882   -15022.051     -2727.29 
    4080   -2727.3288    12.807225    197.61949        3.715   -7629.7175   -8363.7041     504.7546   -15030.203   -2727.3288 
    4090   -2727.3726    12.807225    197.64518        3.715   -7761.5944   -8590.8069    489.45292   -15183.429   -2727.3726 
    4100   -2727.4199    12.807225    197.65023        3.715   -7801.5898     -8772.95    595.05214   -15226.871   -2727.4199 
    4110    -2727.457    12.807225    197.63454        3.715      -7723.6   -8806.5527    785.94692   -15150.194    -2727.457 
    4120   -2727.4889    12.807225    197.65377        3.715   -7883.6028   -8991.9526    719.70595   -15378.562   -2727.4889 
    4130   -2727.5191    12.807225    197.68898        3.715   -8153.2147   -9285.6741    624.68764   -15798.658   -2727.5191 
    4140    -2727.548    12.807225    197.69571        3.715   -8217.7631   -9365.4407    718.29078   -16006.139    -2727.548 
    4150   -2727.5708    12.807225    197.70651        3.715   -8297.6046   -9412.7832    639.03817   -16119.069   -2727.5708 
    4160   -2727.5878    12.807225    197.72629        3.715   -8451.9846   -9560.6461    467.70018   -16263.008   -2727.5878 
    4170   -2727.6037    12.807225      197.739        3.715   -8583.2186   -9732.8809    390.11509    -16406.89   -2727.6037 
    4180   -2727.6141    12.807225    197.74681        3.715   -8662.1542   -9842.8344    322.07464   -16465.703   -2727.6141 
    4190   -2727.6252    12.807225    197.75386        3.715   -8728.8805   -9942.2263    238.63669   -16483.052   -2727.6252 
    4200   -2727.6374    12.807225    197.75261        3.715   -8745.2434   -9997.4872    218.50991   -16456.753   -2727.6374 
    4210   -2727.6499    12.807225    197.75508        3.715   -8791.4226   -10081.373    158.98812   -16451.882   -2727.6499 
    4220   -2727.6653    12.807225    197.75523        3.715   -8821.8306   -10164.445    106.36922   -16407.416   -2727.6653 
    4230   -2727.6833    12.807225    197.75377        3.715   -8834.5847   -10184.083    75.149862   -16394.821   -2727.6833 
    4236   -2727.6964    12.807225    197.75299        3.715   -8845.4842   -10196.018     73.90679   -16414.342   -2727.6964 
Loop time of 15.1841 on 1 procs for 4236 steps with 780 atoms

Minimization stats:
  Stopping criterion = max force evaluations
  Energy initial, next-to-last, final = 
        -1666.77075699     -2727.69388113     -2727.69636537
  Force two-norm initial, final = 5985.75 0.978261
  Force max component initial, final = 5985.75 0.338863
  Final line search alpha, max atom move = 0.000670194 0.000227104
  Iterations, force evaluations = 4236 5001

Pair  time (%) = 13.5212 (89.0481)
Neigh time (%) = 0.21569 (1.4205)
Comm  time (%) = 0.584381 (3.84864)
Outpt time (%) = 0.0271369 (0.178719)
Other time (%) = 0.835741 (5.50406)

Nlocal:    780 ave 780 max 780 min
Histogram: 1 0 0 0 0 0 0 0 0 0
Nghost:    8461 ave 8461 max 8461 min
Histogram: 1 0 0 0 0 0 0 0 0 0
Neighs:    55880 ave 55880 max 55880 min
Histogram: 1 0 0 0 0 0 0 0 0 0
FullNghs:  175602 ave 175602 max 175602 min
Histogram: 1 0 0 0 0 0 0 0 0 0

Total # of neighbors = 175602
Ave neighs/atom = 225.131
Neighbor list builds = 82
Dangerous builds = 0

 # ---------- Calculate GB Energy ---------------------
variable minimumenergy equal -3.360000
variable esum equal "v_minimumenergy * count(all)"
variable xseng equal "c_eatoms - (v_minimumenergy * count(all))"
variable gbarea equal "lx * lz * 2"
variable gbe equal "(c_eatoms - (v_minimumenergy * count(all)))/v_gbarea"
variable gbemJm2 equal ${gbe}*16021.7733
variable gbemJm2 equal -1.12336033627513*16021.7733
variable gbernd equal round(${gbemJm2})
variable gbernd equal round(-17998.2246420119)
print "GB energy is ${gbemJm2} mJ/m^2"
GB energy is -17998.2246420119 mJ/m^2

 # ---------- Dump data into Data file -------------
reset_timestep 0
dump 		1 all cfg 1000 dump.al_sig5_310_*.cfg mass type xs ys zs c_csym c_eng fx fy fz
dump_modify     1 element Cu Cu
minimize 1e-15 1e-15 5000 5000
WARNING: Resetting reneighboring criteria during minimization (../min.cpp:168)
Memory usage per processor = 5.59349 Mbytes
Step PotEng Lx Ly Lz Press Pxx Pyy Pzz eatoms 
       0   -2727.6964    12.807225    197.75299        3.715   -8845.4842   -10196.018     73.90679   -16414.342   -2727.6964 
      10   -2727.7811    12.807225    197.70751        3.715   -8567.9188   -9969.6189    452.11428   -16186.252   -2727.7811 
      20   -2727.8133    12.807225    197.73428        3.715   -8768.8162   -10125.895    177.18713   -16357.741   -2727.8133 
      30   -2727.8148    12.807225    197.74134        3.715   -8814.9555   -10157.933    114.43481   -16401.368   -2727.8148 
      40    -2727.817    12.807225    197.74526        3.715   -8836.4048   -10164.121     77.39599    -16422.49    -2727.817 
      50   -2727.8191    12.807225    197.74509        3.715   -8833.5755   -10155.521    65.985997   -16411.192   -2727.8191 
      60   -2727.8299    12.807225    197.73347        3.715   -8757.1777   -10049.388    70.342804   -16292.488   -2727.8299 
      70   -2727.8603    12.807225    197.70931        3.715   -8611.1343   -9772.8722    34.245705   -16094.776   -2727.8603 
      80   -2727.9027    12.807225    197.68953        3.715   -8503.6161   -9562.7994    33.309655   -15981.359   -2727.9027 
      90   -2728.0092    12.807225    197.70312        3.715   -8677.1222   -9280.2608   -393.58968   -16357.516   -2728.0092 
     100   -2728.0639    12.807225    197.64397        3.715   -8307.2606   -8956.6838    58.287343   -16023.385   -2728.0639 
     110   -2728.0922    12.807225    197.62867        3.715   -8200.5533    -8842.904    159.58185   -15918.338   -2728.0922 
     120   -2728.2191    12.807225    197.63363        3.715   -8278.0728   -8933.1578    203.73783   -16104.798   -2728.2191 
     130   -2728.2268    12.807225    197.65547        3.715   -8425.8714   -9074.9119    76.273506   -16278.976   -2728.2268 
     140   -2728.2841    12.807225    197.66842        3.715   -8548.0145   -9191.9025    6.4482581   -16458.589   -2728.2841 
     150   -2728.3408    12.807225    197.71502        3.715    -8897.527   -9537.8738   -348.81522   -16805.892   -2728.3408 
     160   -2728.3937    12.807225    197.69325        3.715   -8769.1495   -9467.5263   -126.57045   -16713.352   -2728.3937 
     170   -2728.4582    12.807225    197.60737        3.715   -8246.5221   -9069.4426    570.06085   -16240.185   -2728.4582 
     180    -2728.574    12.807225    197.71249        3.715   -9110.9039    -9859.812   -525.52105   -16947.379    -2728.574 
     190   -2728.6527    12.807225    197.56282        3.715   -8197.7241   -8991.2234    530.96108    -16132.91   -2728.6527 
     200   -2728.6953    12.807225    197.60984        3.715   -8542.8008   -9232.3786    58.586557    -16454.61   -2728.6953 
     210   -2728.7258    12.807225    197.61076        3.715   -8562.1426   -9202.4948     10.58052   -16494.514   -2728.7258 
     220   -2728.7386    12.807225    197.53025        3.715   -8025.5794    -8716.989    664.91023   -16024.659   -2728.7386 
     230   -2728.7579    12.807225    197.59494        3.715    -8527.176   -9074.5044   -26.885106   -16480.139   -2728.7579 
     240   -2728.7795    12.807225    197.59641        3.715   -8545.8491   -9064.1539   -87.531711   -16485.862   -2728.7795 
     250   -2728.7839    12.807225    197.60299        3.715   -8595.5537   -9070.3396    -169.4935   -16546.828   -2728.7839 
     260   -2728.7897    12.807225    197.58431        3.715   -8472.4802   -8900.4555   -31.261439   -16485.724   -2728.7897 
     270   -2728.8756    12.807225    197.47604        3.715   -7788.3891   -8300.4743    834.82866   -15899.522   -2728.8756 
     280   -2728.9406    12.807225    197.51504        3.715   -8067.3887   -8564.5226    524.14791   -16161.791   -2728.9406 
     290   -2728.9864    12.807225    197.58101        3.715   -8533.0757   -8995.0644   -26.730625   -16577.432   -2728.9864 
     300   -2728.9986    12.807225    197.56315        3.715   -8434.1069   -8905.1707    75.529719    -16472.68   -2728.9986 
     310   -2729.0056    12.807225    197.51756        3.715   -8128.4394   -8634.8169    461.69744   -16212.199   -2729.0056 
     320   -2729.0067    12.807225    197.56938        3.715   -8494.7182   -8977.7009    1.2430837   -16507.697   -2729.0067 
     330   -2729.0153    12.807225    197.58495        3.715   -8617.8174   -9080.9093   -144.48468   -16628.058   -2729.0153 
     340   -2729.0222    12.807225    197.53637        3.715   -8314.1422   -8838.5526    228.71461   -16332.589   -2729.0222 
     350   -2729.0315    12.807225    197.55775        3.715   -8480.6779   -8996.5412    22.995622   -16468.488   -2729.0315 
     360   -2729.0323    12.807225    197.58573        3.715   -8675.2237   -9167.4522   -221.54647   -16636.672   -2729.0323 
     370    -2729.033    12.807225     197.5571        3.715    -8477.625   -8990.5694    24.156167   -16466.462    -2729.033 
     380   -2729.0332    12.807225    197.55947        3.715   -8494.6356   -9004.1809    7.2210762   -16486.947   -2729.0332 
     390   -2729.0345    12.807225    197.56303        3.715   -8520.2086   -9023.5751   -27.551064     -16509.5   -2729.0345 
     400   -2729.0346    12.807225    197.56526        3.715   -8536.0219   -9035.9935   -50.190724   -16521.881   -2729.0346 
     410    -2729.035    12.807225    197.57428        3.715    -8599.922   -9095.6373   -130.49218   -16573.636    -2729.035 
     420   -2729.0359    12.807225    197.56167        3.715   -8512.0733   -9025.5067   -14.693481    -16496.02   -2729.0359 
     430   -2729.0421    12.807225    197.54748        3.715   -8410.6167   -8922.4618    122.18151    -16431.57   -2729.0421 
     440   -2729.0449    12.807225    197.55916        3.715   -8493.1187   -9035.5349    31.334888   -16475.156   -2729.0449 
     450     -2729.05    12.807225    197.59689        3.715   -8761.4102   -9261.9519    -313.1673   -16709.111     -2729.05 
     460   -2729.0532    12.807225    197.57082        3.715    -8582.902   -9106.8668   -80.702202   -16561.137   -2729.0532 
     470   -2729.0544    12.807225    197.56145        3.715   -8521.3381   -9050.5136   -1.9474803   -16511.553   -2729.0544 
     480    -2729.055    12.807225    197.56158        3.715    -8529.433   -9046.5692   -29.516533   -16512.213    -2729.055 
     490   -2729.0558    12.807225    197.55832        3.715   -8507.3967    -9027.792    1.0618526    -16495.46   -2729.0558 
     500   -2729.0564    12.807225    197.55905        3.715   -8513.3461   -9035.7419   -1.4164228    -16502.88   -2729.0564 
     510   -2729.0573    12.807225    197.55329        3.715   -8486.2844   -8999.1474    3.6525565   -16463.358   -2729.0573 
     520   -2729.0607    12.807225    197.54303        3.715   -8441.3999    -8941.248    12.274981   -16395.227   -2729.0607 
     530   -2729.0643    12.807225    197.54059        3.715   -8427.2919    -8941.815    60.965063   -16401.026   -2729.0643 
     540    -2729.065    12.807225    197.54946        3.715   -8489.5396   -8989.6382   -17.972537   -16461.008    -2729.065 
     550   -2729.0667    12.807225    197.54382        3.715   -8456.1326   -8961.8066    9.9685228    -16416.56   -2729.0667 
     560   -2729.0672    12.807225    197.54536        3.715        -8467   -8969.3773    -5.910515   -16425.712   -2729.0672 
     570   -2729.0672    12.807225    197.54769        3.715   -8481.7495   -8983.6012   -17.471395   -16444.176   -2729.0672 
     580   -2729.0673    12.807225    197.55064        3.715   -8499.6839   -9000.8554   -30.037958   -16468.158   -2729.0673 
     590   -2729.0674    12.807225    197.56068        3.715   -8564.1143   -9058.3532   -101.87505   -16532.115   -2729.0674 
     600   -2729.0686    12.807225    197.54654        3.715   -8463.3677    -8972.427     29.29087   -16446.967   -2729.0686 
     610   -2729.0686    12.807225    197.54733        3.715   -8470.5817   -8980.0275    19.318994   -16451.037   -2729.0686 
[...]
    1060   -2729.0793    12.807225    197.51821        3.715   -8389.4119   -8899.8671    7.0712994    -16275.44   -2729.0793 
    1070   -2729.0794    12.807225    197.51922        3.715   -8396.2154   -8905.8798   0.56657806   -16283.333   -2729.0794 
    1080   -2729.0794    12.807225    197.51955        3.715     -8398.59   -8909.0983   -2.3576095   -16284.314   -2729.0794 
    1090   -2729.0796    12.807225    197.51923        3.715   -8396.8047   -8914.5155    2.7145895   -16278.613   -2729.0796 
    1100   -2729.0796    12.807225    197.52005        3.715   -8403.0807   -8919.6203   -6.2810099   -16283.341   -2729.0796 
    1110   -2729.0796    12.807225    197.51993        3.715   -8403.8708   -8917.0954   -14.306891    -16280.21   -2729.0796 
    1120   -2729.0799    12.807225    197.51513        3.715   -8377.9751   -8887.8603    7.6228968   -16253.688   -2729.0799 
    1130   -2729.0801    12.807225    197.51638        3.715   -8387.4569   -8897.2238   -3.1611388   -16261.986   -2729.0801 
    1140   -2729.0801    12.807225    197.51685        3.715   -8389.9243   -8900.1757    -6.178352   -16263.419   -2729.0801 
    1150   -2729.0802    12.807225    197.51708        3.715   -8391.0179   -8903.4186   -5.4825867   -16264.153   -2729.0802 
    1160   -2729.0802    12.807225    197.51742        3.715   -8394.0085    -8908.658   -8.2538807   -16265.114   -2729.0802 
    1170   -2729.0802    12.807225    197.51746        3.715   -8395.7916   -8913.0762   -9.0235759   -16265.275   -2729.0802 
    1180   -2729.0802    12.807225    197.51728        3.715   -8397.5589   -8916.5627   -16.214105     -16259.9   -2729.0802 
    1190   -2729.0803    12.807225    197.51561        3.715   -8388.7596   -8909.8574   -9.7720594   -16246.649   -2729.0803 
    1200   -2729.0803    12.807225    197.51294        3.715   -8372.4683   -8893.9436    4.8832049   -16228.344   -2729.0803 
    1210   -2729.0805    12.807225     197.5149        3.715   -8385.4145   -8902.7899   -10.214143    -16243.24   -2729.0805 
    1220   -2729.0805    12.807225    197.51445        3.715   -8381.2924   -8896.4711   -1.4646936   -16245.941   -2729.0805 
    1230   -2729.0805    12.807225    197.51481        3.715   -8383.3361   -8895.5965   -6.4327149   -16247.979   -2729.0805 
    1240   -2729.0805    12.807225    197.51458        3.715   -8382.1591   -8892.8411   -6.8094395   -16246.827   -2729.0805 
    1250   -2729.0806    12.807225    197.51438        3.715   -8382.3287     -8891.13   -8.9435714   -16246.912   -2729.0806 
    1260   -2729.0806    12.807225    197.51407        3.715   -8381.5806   -8890.9894   -8.7711181   -16244.981   -2729.0806 
    1270   -2729.0806    12.807225    197.51347        3.715   -8378.5592   -8887.6194   -7.0468973   -16241.011   -2729.0806 
    1280   -2729.0807    12.807225    197.51258        3.715   -8375.2635   -8881.2323   -10.635908   -16233.922   -2729.0807 
    1290   -2729.0809    12.807225    197.50978        3.715   -8358.9394   -8866.4793   -1.3792548    -16208.96   -2729.0809 
    1300    -2729.081    12.807225    197.51245        3.715   -8377.8336   -8884.5261   -22.374203   -16226.601    -2729.081 
    1310   -2729.0811    12.807225    197.51034        3.715    -8363.597   -8872.5054   -2.6027365   -16215.683   -2729.0811 
    1320   -2729.0811    12.807225    197.51025        3.715   -8362.5442   -8870.7377   -1.3588097   -16215.536   -2729.0811 
    1330   -2729.0811    12.807225    197.51073        3.715   -8365.8771   -8873.6132   -5.1717035   -16218.847   -2729.0811 
    1340   -2729.0811    12.807225    197.51065        3.715   -8365.2639   -8873.2189   -4.3406808   -16218.232   -2729.0811 
    1350   -2729.0811    12.807225     197.5106        3.715   -8364.8318   -8873.1294   -4.4172845   -16216.949   -2729.0811 
    1360   -2729.0811    12.807225    197.51058        3.715   -8364.8216   -8873.3603   -4.4217639   -16216.683   -2729.0811 
    1370   -2729.0811    12.807225    197.51045        3.715    -8364.108   -8872.4679   -4.9840549   -16214.872   -2729.0811 
    1380   -2729.0811    12.807225    197.51024        3.715   -8363.2038   -8871.6203   -5.0631216   -16212.928   -2729.0811 
    1390   -2729.0811    12.807225    197.51038        3.715    -8367.276   -8874.9731   -12.824641    -16214.03   -2729.0811 
    1400   -2729.0812    12.807225    197.50963        3.715    -8364.628   -8873.6782   -12.204539   -16208.001   -2729.0812 
    1410   -2729.0812    12.807225    197.50946        3.715   -8365.4776   -8875.9359   -13.035283   -16207.462   -2729.0812 
    1420   -2729.0813    12.807225    197.50832        3.715   -8359.6838   -8867.6373    -11.81672   -16199.597   -2729.0813 
    1430   -2729.0813    12.807225    197.50805        3.715   -8360.3666   -8867.0054   -18.167947   -16195.927   -2729.0813 
    1440   -2729.0814    12.807225    197.50707        3.715     -8354.67   -8858.7885   -18.724791   -16186.497   -2729.0814 
    1450   -2729.0815    12.807225    197.50521        3.715   -8343.9961   -8848.6663    -8.742329    -16174.58   -2729.0815 
    1460   -2729.0815    12.807225    197.50468        3.715   -8342.3558   -8846.8235   -10.047044   -16170.197   -2729.0815 
    1470   -2729.0816    12.807225    197.50422        3.715    -8341.335    -8843.609    -16.37418   -16164.022   -2729.0816 
    1480   -2729.0816    12.807225    197.50229        3.715   -8329.3989   -8831.4505   -6.3531049   -16150.393   -2729.0816 
    1490   -2729.0816    12.807225    197.50173        3.715   -8325.0899   -8823.8124   -4.1476489    -16147.31   -2729.0816 
    1500   -2729.0817    12.807225    197.50229        3.715   -8328.2338   -8823.5646   -9.7245962   -16151.412   -2729.0817 
    1510   -2729.0817    12.807225    197.50224        3.715   -8326.5143    -8818.185   -9.7709075   -16151.587   -2729.0817 
    1520   -2729.0817    12.807225    197.50197        3.715   -8323.9826   -8814.0429   -6.3172273   -16151.588   -2729.0817 
    1530   -2729.0817    12.807225    197.50187        3.715   -8323.1011   -8812.4459    -4.211392   -16152.646   -2729.0817 
    1540   -2729.0817    12.807225    197.50175        3.715   -8321.8402   -8810.8522   -3.3211973   -16151.347   -2729.0817 
    1550   -2729.0817    12.807225    197.50184        3.715   -8322.3997    -8811.797   -3.6416982   -16151.761   -2729.0817 
    1560   -2729.0817    12.807225     197.5017        3.715   -8321.5388   -8811.3355   -2.9083825   -16150.372   -2729.0817 
    1570   -2729.0817    12.807225    197.50167        3.715   -8321.2031   -8811.1019   -2.5777422    -16149.93   -2729.0817 
    1580   -2729.0817    12.807225    197.50167        3.715     -8321.16   -8811.4153   -2.1523591   -16149.912   -2729.0817 
    1590   -2729.0817    12.807225    197.50178        3.715   -8321.6443   -8811.9214   -2.4934624   -16150.518   -2729.0817 
    1600   -2729.0817    12.807225    197.50188        3.715    -8322.081   -8812.7593   -1.7866922   -16151.697   -2729.0817 
    1610   -2729.0817    12.807225    197.50189        3.715   -8321.8915   -8812.1627   -1.5755183   -16151.936   -2729.0817 
    1620   -2729.0817    12.807225    197.50199        3.715   -8322.4879   -8812.4135   -2.3895342   -16152.661   -2729.0817 
    1630   -2729.0817    12.807225    197.50208        3.715   -8323.1237   -8812.7648    -3.198936   -16153.407   -2729.0817 
    1640   -2729.0817    12.807225    197.50205        3.715   -8322.9264   -8812.1711   -3.1051049   -16153.503   -2729.0817 
    1650   -2729.0817    12.807225      197.502        3.715   -8322.5828   -8811.9375   -2.6033482   -16153.208   -2729.0817 
    1660   -2729.0817    12.807225    197.50203        3.715   -8322.7914   -8812.1313   -2.9035676   -16153.339   -2729.0817 
    1670   -2729.0817    12.807225    197.50198        3.715   -8322.5021   -8811.4776   -2.9035254   -16153.125   -2729.0817 
    1680   -2729.0817    12.807225    197.50193        3.715   -8322.0922   -8810.6561   -3.1722947   -16152.448   -2729.0817 
    1690   -2729.0817    12.807225    197.50185        3.715    -8321.652   -8810.2607   -3.1607762   -16151.535   -2729.0817 
    1700   -2729.0817    12.807225    197.50176        3.715   -8321.0591   -8809.3783   -3.0509236   -16150.748   -2729.0817 
    1710   -2729.0817    12.807225     197.5017        3.715   -8320.5089   -8808.2393   -2.6530691   -16150.634   -2729.0817 
    1720   -2729.0817    12.807225    197.50178        3.715   -8321.0138    -8807.987   -3.2791991   -16151.775   -2729.0817 
    1730   -2729.0818    12.807225     197.5017        3.715   -8320.3963   -8806.8557   -2.6268223   -16151.706   -2729.0818 
    1740   -2729.0818    12.807225    197.50173        3.715   -8320.5228   -8806.7802   -2.5478721    -16152.24   -2729.0818 
    1750   -2729.0818    12.807225    197.50171        3.715   -8320.1616   -8806.2268   -2.4572166   -16151.801   -2729.0818 
    1760   -2729.0818    12.807225    197.50183        3.715   -8320.6871   -8806.3016   -3.2266942   -16152.533   -2729.0818 
    1770   -2729.0818    12.807225    197.50181        3.715   -8320.4025   -8805.3325   -2.6729185   -16153.202   -2729.0818 
    1780   -2729.0818    12.807225    197.50185        3.715   -8320.6523    -8804.692   -3.5408729   -16153.724   -2729.0818 
    1790   -2729.0818    12.807225    197.50181        3.715   -8320.3183   -8804.6474   -2.8051163   -16153.502   -2729.0818 
    1800   -2729.0818    12.807225    197.50184        3.715   -8320.2889   -8804.3958   -2.7224346   -16153.748   -2729.0818 
    1810   -2729.0818    12.807225    197.50191        3.715   -8320.4761   -8804.9982   -2.3452354   -16154.085   -2729.0818 
    1820   -2729.0818    12.807225    197.50208        3.715   -8321.4671   -8806.4427   -2.7763202   -16155.182   -2729.0818 
    1830   -2729.0818    12.807225     197.5021        3.715   -8321.4018   -8806.8376   -2.6038129   -16154.764   -2729.0818 
    1840   -2729.0818    12.807225    197.50219        3.715    -8321.737   -8807.7115    -2.606001   -16154.893   -2729.0818 
    1850   -2729.0818    12.807225    197.50216        3.715   -8321.3095   -8807.6424   -1.7507226   -16154.535   -2729.0818 
    1860   -2729.0818    12.807225    197.50217        3.715    -8321.237   -8807.8406   -1.5079891   -16154.362   -2729.0818 
    1870   -2729.0818    12.807225    197.50218        3.715   -8321.2504   -8807.8676   -1.2787297   -16154.605   -2729.0818 
    1880   -2729.0818    12.807225    197.50224        3.715   -8321.5071   -8808.1746   -1.1597368   -16155.187   -2729.0818 
    1890   -2729.0818    12.807225     197.5023        3.715    -8321.898   -8808.5607   -1.1739054   -16155.959   -2729.0818 
    1900   -2729.0818    12.807225    197.50233        3.715   -8322.0959   -8808.7103   -1.0779778   -16156.499   -2729.0818 
    1910   -2729.0818    12.807225    197.50237        3.715   -8322.3244   -8808.9402   -1.0360178   -16156.997   -2729.0818 
    1920   -2729.0818    12.807225    197.50236        3.715   -8322.2633   -8808.7936   -1.2032876   -16156.793   -2729.0818 
    1930   -2729.0818    12.807225    197.50236        3.715    -8322.266    -8808.837   -1.2200866   -16156.741   -2729.0818 
    1940   -2729.0818    12.807225    197.50233        3.715   -8322.0577   -8808.7772   -1.0118915   -16156.384   -2729.0818 
    1950   -2729.0818    12.807225    197.50227        3.715   -8321.5633   -8808.2282  -0.77056476   -16155.691   -2729.0818 
    1960   -2729.0818    12.807225    197.50228        3.715   -8321.6534   -8808.3325  -0.73124712   -16155.896   -2729.0818 
    1970   -2729.0818    12.807225    197.50229        3.715   -8321.6407   -8808.3004  -0.70711992   -16155.915   -2729.0818 
    1980   -2729.0818    12.807225    197.50227        3.715   -8321.4632   -8807.8957  -0.71476778   -16155.779   -2729.0818 
    1990   -2729.0818    12.807225    197.50229        3.715   -8321.6624   -8807.8933  -0.73784358   -16156.356   -2729.0818 
    2000   -2729.0818    12.807225    197.50228        3.715   -8321.5722    -8807.525   -0.8282962   -16156.363   -2729.0818 
    2010   -2729.0818    12.807225    197.50226        3.715   -8321.3945   -8807.2197  -0.76998009   -16156.194   -2729.0818 
    2020   -2729.0818    12.807225    197.50224        3.715     -8321.35    -8807.091  -0.69659261   -16156.262   -2729.0818 
    2030   -2729.0818    12.807225    197.50222        3.715   -8321.1964   -8806.6843  -0.79944498   -16156.105   -2729.0818 
    2040   -2729.0818    12.807225    197.50222        3.715   -8321.2997   -8806.7702  -0.94259082   -16156.186   -2729.0818 
    2050   -2729.0818    12.807225    197.50221        3.715   -8321.2944   -8806.6731   -1.0637974   -16156.146   -2729.0818 
    2060   -2729.0818    12.807225    197.50219        3.715   -8321.1045   -8806.3996  -0.93064983   -16155.983   -2729.0818 
    2070   -2729.0818    12.807225    197.50219        3.715   -8321.0994   -8806.4125   -0.8168842   -16156.069   -2729.0818 
    2080   -2729.0818    12.807225    197.50215        3.715   -8320.8827   -8805.9916   -1.0396889   -16155.617   -2729.0818 
    2090   -2729.0818    12.807225    197.50214        3.715   -8320.8809   -8805.9898   -1.1823082   -16155.471   -2729.0818 
    2100   -2729.0818    12.807225    197.50207        3.715   -8320.4518   -8805.5812   -1.0774456   -16154.697   -2729.0818 
    2110   -2729.0818    12.807225    197.50197        3.715   -8319.7884   -8804.8356  -0.88154133   -16153.648   -2729.0818 
    2120   -2729.0818    12.807225    197.50193        3.715   -8319.6271   -8804.5563  -0.73456933   -16153.591   -2729.0818 
    2130   -2729.0818    12.807225    197.50189        3.715   -8319.3472   -8804.0752  -0.77319047   -16153.193   -2729.0818 
    2140   -2729.0818    12.807225     197.5019        3.715   -8319.4021    -8803.952  -0.95826178   -16153.296   -2729.0818 
    2150   -2729.0818    12.807225    197.50194        3.715   -8319.6569   -8804.0176   -1.2010028   -16153.752   -2729.0818 
    2160   -2729.0818    12.807225    197.50191        3.715   -8319.4243   -8803.6491  -0.88411004    -16153.74   -2729.0818 
    2170   -2729.0818    12.807225    197.50191        3.715   -8319.4399    -8803.512  -0.88770943    -16153.92   -2729.0818 
    2180   -2729.0818    12.807225    197.50194        3.715   -8319.6512   -8803.6622   -1.0448828   -16154.246   -2729.0818 
    2190   -2729.0818    12.807225     197.5019        3.715   -8319.3751   -8803.3273  -0.98212111   -16153.816   -2729.0818 
    2200   -2729.0818    12.807225    197.50188        3.715   -8319.2927   -8803.2333   -0.9796625   -16153.665   -2729.0818 
    2210   -2729.0818    12.807225    197.50186        3.715   -8319.1598   -8803.1116  -0.91857972   -16153.449   -2729.0818 
    2220   -2729.0818    12.807225    197.50183        3.715   -8319.0138   -8802.9846  -0.92357532   -16153.133   -2729.0818 
    2230   -2729.0818    12.807225    197.50183        3.715   -8318.9762   -8803.1135  -0.72998918   -16153.085   -2729.0818 
    2240   -2729.0818    12.807225    197.50183        3.715    -8318.957   -8803.0608  -0.75159701   -16153.058   -2729.0818 
    2250   -2729.0818    12.807225    197.50184        3.715   -8318.9796   -8803.0417  -0.79571924   -16153.101   -2729.0818 
    2260   -2729.0818    12.807225    197.50186        3.715   -8319.1252   -8803.2766  -0.77030506   -16153.329   -2729.0818 
    2270   -2729.0818    12.807225    197.50185        3.715   -8319.0329   -8803.1613  -0.71715795    -16153.22   -2729.0818 
    2280   -2729.0818    12.807225    197.50183        3.715   -8318.9047    -8803.048  -0.58193181   -16153.084   -2729.0818 
    2290   -2729.0818    12.807225    197.50184        3.715   -8319.0406   -8803.2854  -0.51575538   -16153.321   -2729.0818 
    2300   -2729.0818    12.807225    197.50182        3.715   -8318.9106   -8803.0855  -0.51977395   -16153.126   -2729.0818 
    2310   -2729.0818    12.807225    197.50183        3.715   -8319.0231   -8803.2489  -0.57344154   -16153.247   -2729.0818 
    2320   -2729.0818    12.807225    197.50184        3.715   -8319.1265    -8803.394  -0.56679404   -16153.419   -2729.0818 
    2330   -2729.0818    12.807225    197.50183        3.715    -8319.092   -8803.3586    -0.484096   -16153.433   -2729.0818 
    2340   -2729.0818    12.807225    197.50185        3.715    -8319.219   -8803.5598  -0.51722653    -16153.58   -2729.0818 
    2350   -2729.0818    12.807225     197.5018        3.715   -8318.9337    -8803.332  -0.25500503   -16153.214   -2729.0818 
    2360   -2729.0818    12.807225     197.5018        3.715   -8318.8991   -8803.3872  -0.23968717    -16153.07   -2729.0818 
    2370   -2729.0818    12.807225     197.5018        3.715   -8318.9159   -8803.4783  -0.26843093   -16153.001   -2729.0818 
    2380   -2729.0818    12.807225    197.50179        3.715   -8318.9341   -8803.5875  -0.31538402     -16152.9   -2729.0818 
    2390   -2729.0818    12.807225    197.50176        3.715   -8318.8571   -8803.6079  -0.30172795   -16152.662   -2729.0818 
    2400   -2729.0818    12.807225    197.50174        3.715   -8318.7537   -8803.5453  -0.24566879    -16152.47   -2729.0818 
    2410   -2729.0818    12.807225    197.50174        3.715   -8318.7706   -8803.5675  -0.26898683   -16152.475   -2729.0818 
    2420   -2729.0818    12.807225    197.50174        3.715   -8318.7903   -8803.5647  -0.26537873   -16152.541   -2729.0818 
    2430   -2729.0818    12.807225    197.50174        3.715   -8318.8389    -8803.614  -0.26255433    -16152.64   -2729.0818 
    2440   -2729.0818    12.807225    197.50174        3.715   -8318.8707   -8803.6697  -0.28782923   -16152.655   -2729.0818 
    2450   -2729.0818    12.807225    197.50175        3.715   -8318.9477    -8803.855  -0.33119843   -16152.657   -2729.0818 
    2460   -2729.0818    12.807225    197.50175        3.715   -8318.9645   -8804.0038  -0.35526197   -16152.534   -2729.0818 
    2470   -2729.0818    12.807225    197.50176        3.715   -8319.0558   -8804.2475  -0.33289974   -16152.587   -2729.0818 
    2480   -2729.0818    12.807225    197.50175        3.715   -8319.0438   -8804.3553  -0.30211204   -16152.474   -2729.0818 
    2490   -2729.0818    12.807225    197.50177        3.715   -8319.1779   -8804.5988  -0.32614579   -16152.609   -2729.0818 
    2500   -2729.0818    12.807225    197.50178        3.715   -8319.2694   -8804.7214  -0.29774766   -16152.789   -2729.0818 
    2505   -2729.0818    12.807225    197.50175        3.715   -8319.0133   -8804.5117  0.060176171   -16152.588   -2729.0818 
Loop time of 13.9302 on 1 procs for 2505 steps with 780 atoms

Minimization stats:
  Stopping criterion = max force evaluations
  Energy initial, next-to-last, final = 
        -2727.69636537     -2729.08178221     -2729.08178221
  Force two-norm initial, final = 1.03265 0.000855632
  Force max component initial, final = 0.434021 0.000353387
  Final line search alpha, max atom move = 0.622196 0.000219876
  Iterations, force evaluations = 2505 5000

Pair  time (%) = 12.8776 (92.4439)
Neigh time (%) = 0.00711002 (0.0510402)
Comm  time (%) = 0.210717 (1.51266)
Outpt time (%) = 0.0310208 (0.222687)
Other time (%) = 0.803738 (5.76974)

Nlocal:    780 ave 780 max 780 min
Histogram: 1 0 0 0 0 0 0 0 0 0
Nghost:    8423 ave 8423 max 8423 min
Histogram: 1 0 0 0 0 0 0 0 0 0
Neighs:    56028 ave 56028 max 56028 min
Histogram: 1 0 0 0 0 0 0 0 0 0
FullNghs:  111966 ave 111966 max 111966 min
Histogram: 1 0 0 0 0 0 0 0 0 0

Total # of neighbors = 111966
Ave neighs/atom = 143.546
Neighbor list builds = 3
Dangerous builds = 0
undump 1

write_restart restart.al_sig5_310_stgb
Neighbor list info ...
  2 neighbor list requests
  update every 1 steps, delay 10 steps, check yes
  master list distance cutoff = 7.50679
  ghost atom cutoff = 7.50679
write_dump all custom dump.img_post_minimize_10.cfg mass type xs ys zs
print "All done"
All done
