units metal
dimension 3
boundary p p p
atom_style atomic
variable latparam equal 4.22786

# ---------- Create Atoms ---------------------
lattice 	bcc ${latparam}
lattice 	bcc 4.22786
Lattice spacing in x,y,z = 4.22786 4.22786 4.22786
region	whole block 0 10 0 10 0 10 units lattice
create_box   1 whole
Created orthogonal box = (0 0 0) to (42.2786 42.2786 42.2786)
  1 by 2 by 2 MPI processor grid
create_atoms 1 region whole
Created 2000 atoms

# ---------- Define Interatomic Potential ---------------------
pair_style eam/alloy
pair_coeff * * Na.eam.fs Na

compute csym all centro/atom bcc
compute eng all pe/atom
compute eatoms all reduce sum c_eng

 # ----------- EQUILIBRATION --------------------
#write_dump all custom dump.img_pre_equil.cfg mass type xs ys zs
#reset_timestep	0
#timestep 0.001
#velocity all create 300 12345 mom yes rot no
#fix 2 all npt temp 300 300 0.01 iso 0 0 1 drag 1

#thermo 1000
#thermo_style custom step temp pe lx ly lz press pxx pyy pzz c_eatoms
#dump 5 all cfg 1000 dump.equal_*.cfg mass type xs ys zs c_csym c_eng fx fy fz
#dump_modify     5 element Na

# Run for at least 10 picosecond (assuming 1 fs timestep)
#write_dump all custom dump.img_post_equil.cfg mass type xs ys zs

#run 20000
#unfix 2
#write_dump all custom dump.img_post_equil.cfg mass type xs ys zs
#print "test1"

# ---------- Run 0 ---------------------
compute engperatom all pe/atom

# ---------- Run 0 ---------------------
thermo 1
thermo_style custom step temp pe etotal
dump 1 all custom 1 dump.atom.* id x y z c_engperatom
run 0
WARNING: No fixes defined, atoms won't move (../verlet.cpp:55)
Neighbor list info ...
  2 neighbor list requests
  update every 1 steps, delay 10 steps, check yes
  master list distance cutoff = 11.2
  ghost atom cutoff = 11.2
Memory usage per processor = 4.12637 Mbytes
Step Temp PotEng TotEng 
       0            0    -2222.044    -2222.044 
Loop time of 5.78165e-06 on 4 procs for 0 steps with 2000 atoms

Pair  time (%) = 0 (0)
Neigh time (%) = 0 (0)
Comm  time (%) = 0 (0)
Outpt time (%) = 0 (0)
Other time (%) = 5.78165e-06 (100)

Nlocal:    500 ave 500 max 500 min
Histogram: 4 0 0 0 0 0 0 0 0 0
Nghost:    2936 ave 2936 max 2936 min
Histogram: 4 0 0 0 0 0 0 0 0 0
Neighs:    42000 ave 43332 max 40621 min
Histogram: 1 0 1 0 0 0 0 1 0 1
FullNghs:  0 ave 0 max 0 min
Histogram: 4 0 0 0 0 0 0 0 0 0

Total # of neighbors = 168000
Ave neighs/atom = 84
Neighbor list builds = 0
Dangerous builds = 0

variable natoms equal "count(all)"
variable teng equal "pe"
variable ecoh equal "v_teng/v_natoms"

print "Total energy (eV) = ${teng};"
Total energy (eV) = -2222.04400107254;
print "Number of atoms = ${natoms};"
Number of atoms = 2000;
print "Cohesive energy (eV) = ${ecoh};"
Cohesive energy (eV) = -1.11102200053627;
print "%% ecoh = ${ecoh};"
%% ecoh = -1.11102200053627;

print "BAZINGAA"
BAZINGAA
