units metal
dimension 3
boundary p p p
atom_style atomic
variable latparam equal 3.52

# ---------- Create Atoms ---------------------
lattice 	fcc ${latparam}
lattice 	fcc 3.52
Lattice spacing in x,y,z = 3.52 3.52 3.52
region	whole block 0 10 0 10 0 10 units lattice
create_box   1 whole
Created orthogonal box = (0 0 0) to (35.2 35.2 35.2)
  1 by 2 by 2 MPI processor grid
create_atoms 1 region whole
Created 4000 atoms

# ---------- Define Interatomic Potential ---------------------
pair_style eam/alloy
pair_coeff * * Ni99.eam.alloy Ni

compute csym all centro/atom fcc
compute eng all pe/atom
compute eatoms all reduce sum c_eng

 # ----------- EQUILIBRATION --------------------
write_dump all custom dump.img_pre_equil.cfg mass type xs ys zs
WARNING: Calling write_dump before a full system init. (../write_dump.cpp:81)
reset_timestep	0
timestep 0.001
velocity all create 300 12345 mom yes rot no
fix 2 all npt temp 300 300 0.01 iso 0 0 1 drag 1

thermo 1000
thermo_style custom step temp pe lx ly lz press pxx pyy pzz c_eatoms
dump 5 all cfg 1000 dump.equal_*.cfg mass type xs ys zs c_csym c_eng fx fy fz
dump_modify     5 element Ni

# Run for at least 10 picosecond (assuming 1 fs timestep)
#write_dump all custom dump.img_post_equil.cfg mass type xs ys zs

run 20000
Neighbor list info ...
  2 neighbor list requests
  update every 1 steps, delay 10 steps, check yes
  master list distance cutoff = 7.80375
  ghost atom cutoff = 7.80375
Memory usage per processor = 4.3693 Mbytes
Step Temp PotEng Lx Ly Lz Press Pxx Pyy Pzz eatoms 
       0          300       -17800         35.2         35.2         35.2    3796.8993    3722.0631    3855.5868     3813.048       -17800 
    1000     301.4509   -17655.597    35.338351    35.338351    35.338351   -1797.5008   -1803.4742   -1907.5264   -1681.5019   -17655.597 
    2000    297.49829   -17654.235    35.333439    35.333439    35.333439   -1184.5073   -1105.8877   -1090.5652   -1357.0692   -17654.235 
    3000    299.27378   -17651.387    35.327757    35.327757    35.327757    484.45931    272.84526    482.47896     698.0537   -17651.387 
    4000    300.41624   -17654.449    35.333526    35.333526    35.333526   -1018.6126    -1156.791   -719.41575    -1179.631   -17654.449 
    5000    300.85384   -17655.605     35.32393     35.32393     35.32393    626.26095     414.0157    600.08146    864.68568   -17655.605 
    6000    299.24847   -17653.222    35.332136    35.332136    35.332136   -727.05429   -784.22882   -718.07099   -678.86306   -17653.222 
    7000    299.72624   -17651.318    35.330117    35.330117    35.330117    96.081316   -129.76039    398.50872    19.495612   -17651.318 
    8000    298.21338   -17651.885    35.330837    35.330837    35.330837   -131.29196   -442.02512   -153.21239    201.36162   -17651.885 
    9000    299.24209    -17651.82    35.329516    35.329516    35.329516    202.53261    275.40043   0.20927998    331.98813    -17651.82 
   10000    302.28114   -17652.913    35.330434    35.330434    35.330434   -180.81201   -517.12285   -105.81692    80.503746   -17652.913 
   11000    300.21256   -17652.975    35.332223    35.332223    35.332223   -453.21971   -502.17729   -358.17172   -499.31012   -17652.975 
   12000    299.37096   -17652.135    35.328108    35.328108    35.328108    218.20334    158.87854    416.59165     79.13984   -17652.135 
   13000    299.90395    -17653.34    35.333106    35.333106    35.333106   -768.66623   -878.64983   -492.18551   -935.16334    -17653.34 
   14000    300.44661   -17652.369    35.331465    35.331465    35.331465   -306.83864   -290.40413   -615.73858   -14.373197   -17652.369 
   15000    298.94787   -17651.522    35.328877    35.328877    35.328877    245.28956    589.00335   -195.85606     342.7214   -17651.522 
   16000    300.39882   -17653.155    35.330835    35.330835    35.330835    -128.2801   0.87681853   -497.83841    112.12129   -17653.155 
   17000    298.32403   -17652.372    35.331702    35.331702    35.331702   -244.31631    535.78976   -406.90773   -861.83095   -17652.372 
   18000    299.29734   -17650.319    35.329863    35.329863    35.329863    210.56698    113.26181    68.820474    449.61865   -17650.319 
   19000    297.04824   -17652.446    35.327341    35.327341    35.327341    444.36572    711.52649    522.27801    99.292656   -17652.446 
   20000    299.00262   -17652.588    35.325244    35.325244    35.325244    983.09813    1360.4851    1202.8132     385.9961   -17652.588 
Loop time of 7577.24 on 4 procs for 20000 steps with 4000 atoms

Pair  time (%) = 3314.09 (43.7375)
Neigh time (%) = 0 (0)
Comm  time (%) = 2732.99 (36.0684)
Outpt time (%) = 9.08856 (0.119946)
Other time (%) = 1521.07 (20.0742)

Nlocal:    1000 ave 1000 max 1000 min
Histogram: 4 0 0 0 0 0 0 0 0 0
Nghost:    4235 ave 4235 max 4235 min
Histogram: 4 0 0 0 0 0 0 0 0 0
Neighs:    88000 ave 91163 max 84792 min
Histogram: 1 0 1 0 0 0 0 1 0 1
FullNghs:  176000 ave 176000 max 176000 min
Histogram: 4 0 0 0 0 0 0 0 0 0

Total # of neighbors = 704000
Ave neighs/atom = 176
Neighbor list builds = 0
Dangerous builds = 0
unfix 2
write_dump all custom dump.img_post_equil.cfg mass type xs ys zs
print "test1"
test1

# ---------- Run 0 ---------------------
compute engperatom all pe/atom

# ---------- Run 0 ---------------------
thermo 1
thermo_style custom step temp pe etotal
dump 1 all custom 1 dump.atom.* id x y z c_engperatom
run 0
WARNING: No fixes defined, atoms won't move (../verlet.cpp:55)
Memory usage per processor = 5.7831 Mbytes
Step Temp PotEng TotEng 
   20000    299.00262   -17652.588    -17498.03 
Loop time of 5.00679e-06 on 4 procs for 0 steps with 4000 atoms

Pair  time (%) = 0 (0)
Neigh time (%) = 0 (0)
Comm  time (%) = 0 (0)
Outpt time (%) = 0 (0)
Other time (%) = 5.00679e-06 (100)

Nlocal:    1000 ave 1017 max 979 min
Histogram: 1 0 0 0 1 0 0 1 0 1
Nghost:    4235 ave 4256 max 4218 min
Histogram: 1 0 1 0 0 1 0 0 0 1
Neighs:    89476.8 ave 92754 max 85463 min
Histogram: 1 0 0 0 1 0 0 0 1 1
FullNghs:  176000 ave 176000 max 176000 min
Histogram: 4 0 0 0 0 0 0 0 0 0

Total # of neighbors = 704000
Ave neighs/atom = 176
Neighbor list builds = 0
Dangerous builds = 0

variable natoms equal "count(all)"
variable teng equal "pe"
variable ecoh equal "v_teng/v_natoms"

print "Total energy (eV) = ${teng};"
Total energy (eV) = -17652.5882958213;
print "Number of atoms = ${natoms};"
Number of atoms = 4000;
print "Cohesive energy (eV) = ${ecoh};"
Cohesive energy (eV) = -4.41314707395532;
print "%% ecoh = ${ecoh};"
%% ecoh = -4.41314707395532;

print "BAZINGAA"
BAZINGAA
