units metal
dimension 3
boundary p p p
atom_style atomic
variable latparam equal 4.05

# ---------- Create Atoms ---------------------
lattice 	fcc ${latparam}
lattice 	fcc 4.05
Lattice spacing in x,y,z = 4.05 4.05 4.05
region	whole block 0 10 0 10 0 10 units lattice
create_box   1 whole
Created orthogonal box = (0 0 0) to (40.5 40.5 40.5)
  1 by 2 by 2 MPI processor grid
create_atoms 1 region whole
Created 4000 atoms

# ---------- Define Interatomic Potential ---------------------
pair_style eam/alloy
pair_coeff * * Al99.eam.alloy Al

compute csym all centro/atom fcc
compute eng all pe/atom
compute eatoms all reduce sum c_eng

 # ----------- EQUILIBRATION --------------------
write_dump all custom dump.img_pre_equil.cfg mass type xs ys zs
WARNING: Calling write_dump before a full system init. (../write_dump.cpp:81)
reset_timestep	0
timestep 0.001
velocity all create 300 12345 mom yes rot no
fix 2 all npt temp 300 300 0.01 iso 0 0 1 drag 1

thermo 1000
thermo_style custom step temp pe lx ly lz press pxx pyy pzz c_eatoms
dump 5 all cfg 1000 dump.equal_*.cfg mass type xs ys zs c_csym c_eng fx fy fz
dump_modify     5 element Al

# Run for at least 10 picosecond (assuming 1 fs timestep)
#write_dump all custom dump.img_post_equil.cfg mass type xs ys zs

run 20000
Neighbor list info ...
  2 neighbor list requests
  update every 1 steps, delay 10 steps, check yes
  master list distance cutoff = 8.28721
  ghost atom cutoff = 8.28721
Memory usage per processor = 4.3693 Mbytes
Step Temp PotEng Lx Ly Lz Press Pxx Pyy Pzz eatoms 
       0          300       -13440         40.5         40.5         40.5    2496.1233    2446.9902    2534.6541    2506.7256       -13440 
    1000    303.77512    -13287.06    40.649166    40.649166    40.649166    103.04479    45.412314    99.817135    163.90493    -13287.06 
    2000     299.8567   -13285.028    40.650247    40.650247    40.650247    78.346849    60.026996   -85.025472    260.03902   -13285.028 
    3000    300.85863   -13287.129    40.652546    40.652546    40.652546    -247.3859   -118.17586   -149.99301   -473.98882   -13287.129 
    4000    299.98101   -13285.452    40.655797    40.655797    40.655797   -309.47287   -376.33115   -412.75284   -139.33462   -13285.452 
    5000    301.75761   -13285.912    40.650101    40.650101    40.650101    -38.99482    20.144616    63.181567   -200.31064   -13285.912 
    6000    299.71517   -13282.412    40.653717    40.653717    40.653717   -87.705465   -239.87274    94.758451   -118.00211   -13282.412 
    7000    298.30239   -13284.386    40.656563    40.656563    40.656563   -278.92883   -250.35137   -444.94183   -141.49329   -13284.386 
    8000    299.60708   -13286.447     40.65081     40.65081     40.65081   -113.34997    65.665122    -302.2898   -103.42524   -13286.447 
    9000    297.89612   -13284.597     40.64665     40.64665     40.64665     200.3496    158.28227    125.94634     316.8202   -13284.597 
   10000    301.93095   -13286.225    40.652352    40.652352    40.652352   -199.35501   -20.382309   -232.19758   -345.48516   -13286.225 
   11000    300.94458   -13284.008    40.649648    40.649648    40.649648    172.67961    64.603952    367.57548    85.859388   -13284.008 
   12000    300.54148   -13282.264    40.651276    40.651276    40.651276    90.781841     220.1785   -89.025477     141.1925   -13282.264 
   13000    300.14227   -13282.489    40.648627    40.648627    40.648627    164.92597    101.91804    208.21621    184.64364   -13282.489 
   14000    298.89902   -13285.629     40.64487     40.64487     40.64487    312.92579    483.48169    263.15333    192.14235   -13285.629 
   15000    298.01788   -13283.313    40.646194    40.646194    40.646194    218.14406    377.64392    217.69029    59.097991   -13283.313 
   16000    300.52963   -13284.296    40.645035    40.645035    40.645035    317.84078    280.17006    340.12052    333.23176   -13284.296 
   17000    300.21978    -13282.96    40.652148    40.652148    40.652148   -42.868951   -31.050308   -102.06389    4.5073413    -13282.96 
   18000    301.91825   -13286.202    40.647406    40.647406    40.647406    156.26532    237.82553    231.60607  -0.63562708   -13286.202 
   19000    300.60067   -13284.255    40.647378    40.647378    40.647378    309.30394    515.78873    200.96018    211.16291   -13284.255 
   20000    298.61878   -13284.169    40.650026    40.650026    40.650026    5.2124755    56.264891    13.777646   -54.405111   -13284.169 
Loop time of 1464.7 on 4 procs for 20000 steps with 4000 atoms

Pair  time (%) = 745.011 (50.8645)
Neigh time (%) = 0 (0)
Comm  time (%) = 426.794 (29.1387)
Outpt time (%) = 2.34772 (0.160287)
Other time (%) = 290.545 (19.8365)

Nlocal:    1000 ave 1000 max 1000 min
Histogram: 4 0 0 0 0 0 0 0 0 0
Nghost:    4235 ave 4235 max 4235 min
Histogram: 4 0 0 0 0 0 0 0 0 0
Neighs:    70000 ave 72653 max 67302 min
Histogram: 1 0 1 0 0 0 0 1 0 1
FullNghs:  140000 ave 140000 max 140000 min
Histogram: 4 0 0 0 0 0 0 0 0 0

Total # of neighbors = 560000
Ave neighs/atom = 140
Neighbor list builds = 0
Dangerous builds = 0
unfix 2
write_dump all custom dump.img_post_equil.cfg mass type xs ys zs
print "test1"
test1

# ---------- Run 0 ---------------------
compute engperatom all pe/atom

# ---------- Run 0 ---------------------
thermo 1
thermo_style custom step temp pe etotal
dump 1 all custom 1 dump.atom.* id x y z c_engperatom
run 0
WARNING: No fixes defined, atoms won't move (../verlet.cpp:55)
Memory usage per processor = 5.78295 Mbytes
Step Temp PotEng TotEng 
   20000    298.61878   -13284.169   -13129.809 
Loop time of 0.0115449 on 4 procs for 0 steps with 4000 atoms

Pair  time (%) = 0 (0)
Neigh time (%) = 0 (0)
Comm  time (%) = 0 (0)
Outpt time (%) = 0 (0)
Other time (%) = 0.0115449 (100)

Nlocal:    1000 ave 1013 max 988 min
Histogram: 1 0 0 1 0 1 0 0 0 1
Nghost:    4143.25 ave 4163 max 4123 min
Histogram: 1 0 0 0 1 1 0 0 0 1
Neighs:    69733.8 ave 71907 max 67414 min
Histogram: 1 0 1 0 0 0 0 1 0 1
FullNghs:  140000 ave 140000 max 140000 min
Histogram: 4 0 0 0 0 0 0 0 0 0

Total # of neighbors = 560000
Ave neighs/atom = 140
Neighbor list builds = 0
Dangerous builds = 0

variable natoms equal "count(all)"
variable teng equal "pe"
variable ecoh equal "v_teng/v_natoms"

print "Total energy (eV) = ${teng};"
Total energy (eV) = -13284.1687353305;
print "Number of atoms = ${natoms};"
Number of atoms = 4000;
print "Cohesive energy (eV) = ${ecoh};"
Cohesive energy (eV) = -3.32104218383262;
print "%% ecoh = ${ecoh};"
%% ecoh = -3.32104218383262;

print "BAZINGAA"
BAZINGAA
