units metal
dimension 3
boundary p p p
atom_style atomic
variable latparam equal 4.05

# ---------- Create Atoms ---------------------
lattice 	fcc ${latparam}
lattice 	fcc 4.05
Lattice spacing in x,y,z = 4.05 4.05 4.05
region	whole block 0 10 0 10 0 10 units lattice
create_box   1 whole
Created orthogonal box = (0 0 0) to (40.5 40.5 40.5)
  1 by 2 by 2 MPI processor grid
create_atoms 1 region whole
Created 4000 atoms

# ---------- Define Interatomic Potential ---------------------
pair_style eam/alloy
pair_coeff * * Al99.eam.alloy Al

compute csym all centro/atom fcc
compute eng all pe/atom
compute eatoms all reduce sum c_eng

 # ----------- EQUILIBRATION --------------------
write_dump all custom dump.img_pre_equil.cfg mass type xs ys zs
WARNING: Calling write_dump before a full system init. (../write_dump.cpp:81)
reset_timestep	0
timestep 0.001
velocity all create 600 12345 mom yes rot no
fix 2 all npt temp 600 600 0.01 iso 0 0 1 drag 1

thermo 1000
thermo_style custom step temp pe lx ly lz press pxx pyy pzz c_eatoms
dump 5 all cfg 1000 dump.equal_*.cfg mass type xs ys zs c_csym c_eng fx fy fz
dump_modify     5 element Al

# Run for at least 10 picosecond (assuming 1 fs timestep)
#write_dump all custom dump.img_post_equil.cfg mass type xs ys zs

run 20000
Neighbor list info ...
  2 neighbor list requests
  update every 1 steps, delay 10 steps, check yes
  master list distance cutoff = 8.28721
  ghost atom cutoff = 8.28721
Memory usage per processor = 4.3693 Mbytes
Step Temp PotEng Lx Ly Lz Press Pxx Pyy Pzz eatoms 
       0          600       -13440         40.5         40.5         40.5    4989.5197    4891.2534    5066.5814    5010.7243       -13440 
    1000    592.94084   -13116.374    40.852382    40.852382    40.852382    386.08158    403.95259    245.60206     508.6901   -13116.374 
    2000    598.66584    -13121.47     40.85568     40.85568     40.85568   -46.709774   -275.53574   -146.65873    282.06515    -13121.47 
    3000    596.30969   -13116.347    40.868947    40.868947    40.868947   -536.52598   -540.36436   -603.42862   -465.78495   -13116.347 
    4000    590.24176    -13116.58    40.862086    40.862086    40.862086   -286.23109   -458.58386   -510.02584    109.91643    -13116.58 
    5000    601.23285   -13117.457    40.859792    40.859792    40.859792   -46.052961   -174.25967    381.74428    -345.6435   -13117.457 
    6000    595.55059   -13117.057    40.855199    40.855199    40.855199    417.94262    257.98218    724.85489    270.99079   -13117.057 
    7000    600.12551   -13118.934     40.85959     40.85959     40.85959   -97.779199   -105.10628   -151.11507   -37.116242   -13118.934 
    8000    605.44152   -13127.452     40.85338     40.85338     40.85338   -240.30106   -164.08602   -76.338511   -480.47865   -13127.452 
    9000    592.61087   -13118.771    40.854997    40.854997    40.854997    198.33772    288.74882    9.5514026    296.71293   -13118.771 
   10000    595.88105   -13110.202    40.852415    40.852415    40.852415    861.13128    1329.4985    408.48008    845.41528   -13110.202 
   11000     600.1733   -13121.574    40.862534    40.862534    40.862534   -423.44887   -519.25117   -379.45973   -371.63572   -13121.574 
   12000    597.20489   -13121.189    40.853916    40.853916    40.853916    102.77568    53.803501    125.43029    129.09324   -13121.189 
   13000    602.15507   -13118.788    40.865967    40.865967    40.865967   -484.21654   -715.08817   -496.55585    -241.0056   -13118.788 
   14000    603.72801   -13119.341    40.857078    40.857078    40.857078    214.80233    -9.666588    37.806962    616.26661   -13119.341 
   15000    599.77399   -13116.824     40.84987     40.84987     40.84987    528.07069     304.2157    809.51445    470.48192   -13116.824 
   16000    603.81621   -13123.962    40.856209    40.856209    40.856209   -72.366579   -352.74122   -123.18385    258.82533   -13123.962 
   17000    607.12846   -13117.947     40.85221     40.85221     40.85221    430.83075    437.37144    108.82121     746.2996   -13117.947 
   18000    601.61124    -13120.82     40.85305     40.85305     40.85305    299.95581    465.24392   -158.75941    593.38292    -13120.82 
   19000    598.27829   -13119.137    40.862249    40.862249    40.862249   -231.75059   -178.00126   -244.61939   -272.63111   -13119.137 
   20000    599.26538   -13118.378    40.874564    40.874564    40.874564    -923.2849   -927.01375   -726.07925   -1116.7617   -13118.378 
Loop time of 1629.56 on 4 procs for 20000 steps with 4000 atoms

Pair  time (%) = 823.136 (50.5127)
Neigh time (%) = 4.72928 (0.290218)
Comm  time (%) = 487.439 (29.9123)
Outpt time (%) = 3.1465 (0.193089)
Other time (%) = 311.11 (19.0917)

Nlocal:    1000 ave 1015 max 991 min
Histogram: 1 1 0 1 0 0 0 0 0 1
Nghost:    3900.25 ave 3917 max 3866 min
Histogram: 1 0 0 0 0 0 0 1 0 2
Neighs:    69554.2 ave 72724 max 67578 min
Histogram: 2 0 0 0 0 1 0 0 0 1
FullNghs:  139143 ave 141331 max 137747 min
Histogram: 1 0 1 1 0 0 0 0 0 1

Total # of neighbors = 556573
Ave neighs/atom = 139.143
Neighbor list builds = 272
Dangerous builds = 0
unfix 2
write_dump all custom dump.img_post_equil.cfg mass type xs ys zs
print "test1"
test1

# ---------- Run 0 ---------------------
compute engperatom all pe/atom

# ---------- Run 0 ---------------------
thermo 1
thermo_style custom step temp pe etotal
dump 1 all custom 1 dump.atom.* id x y z c_engperatom
run 0
WARNING: No fixes defined, atoms won't move (../verlet.cpp:55)
Memory usage per processor = 5.78516 Mbytes
Step Temp PotEng TotEng 
   20000    599.26538   -13118.378   -12808.611 
Loop time of 5.78761e-05 on 4 procs for 0 steps with 4000 atoms

Pair  time (%) = 0 (0)
Neigh time (%) = 0 (0)
Comm  time (%) = 0 (0)
Outpt time (%) = 0 (0)
Other time (%) = 5.78761e-05 (100)

Nlocal:    1000 ave 1011 max 984 min
Histogram: 1 0 0 0 0 0 1 1 0 1
Nghost:    3904.5 ave 3940 max 3872 min
Histogram: 1 0 0 1 0 1 0 0 0 1
Neighs:    69576.2 ave 71692 max 67572 min
Histogram: 1 1 0 0 0 0 0 0 1 1
FullNghs:  139143 ave 141331 max 137747 min
Histogram: 1 0 1 1 0 0 0 0 0 1

Total # of neighbors = 556573
Ave neighs/atom = 139.143
Neighbor list builds = 0
Dangerous builds = 0

variable natoms equal "count(all)"
variable teng equal "pe"
variable ecoh equal "v_teng/v_natoms"

print "Total energy (eV) = ${teng};"
Total energy (eV) = -13118.3780791003;
print "Number of atoms = ${natoms};"
Number of atoms = 4000;
print "Cohesive energy (eV) = ${ecoh};"
Cohesive energy (eV) = -3.27959451977507;
print "%% ecoh = ${ecoh};"
%% ecoh = -3.27959451977507;

print "BAZINGAA"
BAZINGAA
